/*--------------------------------*- C++ -*----------------------------------*\
| =========                 |                                                 |
| \\      /  F ield         | OpenFOAM: The Open Source CFD Toolbox           |
|  \\    /   O peration     | Version:  2212                                  |
|   \\  /    A nd           | Website:  www.openfoam.com                      |
|    \\/     M anipulation  |                                                 |
\*---------------------------------------------------------------------------*/
FoamFile
{
    version     2.0;
    format      ascii;
    arch        "LSB;label=32;scalar=64";
    class       volScalarField;
    location    "100";
    object      nut;
}
// * * * * * * * * * * * * * * * * * * * * * * * * * * * * * * * * * * * * * //

dimensions      [0 2 -1 0 0 0 0];

internalField   nonuniform List<scalar> 
165000
(
5.79432e-08
5.61607e-08
5.73762e-08
5.33324e-08
5.57904e-08
5.70857e-08
3.94309e-08
5.11905e-08
5.58228e-08
5.64237e-08
2.58981e-08
3.59611e-08
4.9962e-08
5.49932e-08
5.62929e-08
1.69909e-08
2.241e-08
3.46118e-08
4.90583e-08
5.45575e-08
5.52434e-08
1.22732e-08
1.41678e-08
2.10744e-08
3.23718e-08
4.73591e-08
5.37598e-08
5.47751e-08
1.04149e-08
1.01816e-08
1.30853e-08
1.88646e-08
3.11268e-08
4.65235e-08
5.35231e-08
5.36361e-08
9.3549e-09
8.64749e-09
9.40083e-09
1.13321e-08
1.78485e-08
2.90722e-08
4.48228e-08
5.31405e-08
5.30183e-08
0.000220479
8.24526e-09
8.02607e-09
8.34082e-09
1.05563e-08
1.6011e-08
2.78542e-08
4.39486e-08
5.25544e-08
5.22157e-08
0.000570109
7.80742e-09
7.58547e-09
7.10195e-09
7.8023e-09
9.44546e-09
1.51261e-08
2.58944e-08
4.23085e-08
5.16758e-08
5.13848e-08
0.000307784
0.000171821
6.98354e-09
6.74415e-09
6.67638e-09
7.00827e-09
8.86505e-09
1.36637e-08
2.46761e-08
4.09723e-08
5.0853e-08
5.01636e-08
0.000185776
0.00024278
1.04289e-05
6.00872e-09
6.32677e-09
6.05974e-09
6.5514e-09
8.02729e-09
1.29523e-08
2.27538e-08
3.95164e-08
4.98308e-08
4.91438e-08
0.000122987
0.000128789
7.41782e-05
5.01106e-07
5.66359e-09
5.65518e-09
5.70305e-09
5.87932e-09
7.55664e-09
1.17507e-08
2.16694e-08
3.76606e-08
4.86372e-08
4.80281e-08
6.71842e-05
8.9128e-05
8.13352e-05
1.04538e-05
3.32958e-08
5.07879e-09
5.28086e-09
5.19876e-09
5.51107e-09
6.87316e-09
1.11264e-08
1.98332e-08
3.61903e-08
4.73038e-08
4.7524e-08
3.16436e-05
4.02692e-05
5.8229e-05
3.46661e-05
1.32569e-06
7.31731e-09
4.79128e-09
4.8227e-09
4.93669e-09
5.00269e-09
6.45642e-09
1.00771e-08
1.88655e-08
3.40319e-08
4.56771e-08
4.61621e-08
8.43666e-06
1.76337e-05
2.86575e-05
2.69981e-05
8.91921e-06
1.93079e-07
5.22796e-09
4.46595e-09
4.58926e-09
4.58291e-09
4.72058e-09
5.87642e-09
9.53545e-09
1.71388e-08
3.24878e-08
4.41183e-08
4.56336e-08
7.01519e-07
3.12425e-06
9.77724e-06
1.7167e-05
1.21185e-05
1.57851e-06
3.54823e-08
4.66521e-09
4.27651e-09
4.25126e-09
4.25234e-09
4.33603e-09
5.51079e-09
8.66586e-09
1.62412e-08
3.0242e-08
4.22495e-08
4.41595e-08
6.73386e-09
5.55608e-07
2.59557e-06
5.95501e-06
8.61256e-06
4.81558e-06
3.17641e-07
1.07995e-08
4.43229e-09
3.9848e-09
4.04373e-09
3.954e-09
4.12434e-09
5.00483e-09
8.22193e-09
1.46656e-08
2.8705e-08
4.05541e-08
4.32574e-08
4.69709e-09
1.08383e-08
6.20325e-07
1.59777e-06
3.34435e-06
3.65991e-06
1.56339e-06
7.42285e-08
6.16932e-09
4.16781e-09
3.8077e-09
3.84893e-09
3.78843e-09
3.89686e-09
4.71438e-09
7.60573e-09
1.38918e-08
2.65273e-08
3.87094e-08
4.18725e-08
4.75783e-09
5.72133e-09
2.38493e-08
5.71275e-07
1.31064e-06
1.99648e-06
1.4199e-06
4.01972e-07
2.27434e-08
5.03439e-09
4.03237e-09
3.64502e-09
3.58809e-09
3.49675e-09
3.7324e-09
4.3782e-09
7.26571e-09
1.26178e-08
2.51432e-08
3.70476e-08
4.07312e-08
5.44823e-09
5.66404e-09
7.81042e-09
3.77444e-08
5.62148e-07
9.99597e-07
9.59789e-07
5.33499e-07
1.12893e-07
1.07535e-08
4.68847e-09
3.85663e-09
3.45808e-09
3.39839e-09
3.32352e-09
3.58393e-09
4.17142e-09
6.80843e-09
1.19997e-08
2.31155e-08
3.53412e-08
3.83606e-08
7.55953e-09
5.60217e-09
7.57786e-09
9.32894e-09
4.8981e-08
3.56894e-07
7.20725e-07
5.18833e-07
2.09777e-07
3.97977e-08
6.91282e-09
4.34367e-09
3.7807e-09
3.3319e-09
3.27252e-09
3.18726e-09
3.49383e-09
3.98189e-09
6.50785e-09
1.10612e-08
2.19452e-08
3.3496e-08
3.63917e-08
1.28763e-08
6.98383e-09
7.35738e-09
8.57683e-09
1.11474e-08
1.82254e-08
3.44511e-07
4.86324e-07
2.41476e-07
9.55531e-08
1.94313e-08
5.62333e-09
4.3625e-09
3.72627e-09
3.25758e-09
2.9882e-09
3.09753e-09
3.39821e-09
3.80362e-09
6.06506e-09
1.0597e-08
2.00922e-08
3.17201e-08
3.46636e-08
2.96933e-08
9.12246e-09
7.86502e-09
8.47058e-09
9.95367e-09
1.32017e-08
1.95803e-08
2.15395e-07
3.3155e-07
1.65862e-07
4.95659e-08
1.46478e-08
5.67933e-09
4.38818e-09
3.65262e-09
3.14792e-09
2.77027e-09
2.9656e-09
3.2977e-09
3.63612e-09
5.77698e-09
9.94331e-09
1.91963e-08
2.98052e-08
3.26678e-08
8.11682e-08
1.408e-08
9.12065e-09
8.91659e-09
9.82414e-09
1.19608e-08
1.4678e-08
2.0666e-08
1.09301e-07
2.22445e-07
1.69915e-07
4.03208e-08
1.10096e-08
5.94524e-09
4.44642e-09
3.60048e-09
3.03325e-09
2.66984e-09
2.85864e-09
3.22541e-09
3.50755e-09
5.55072e-09
9.62361e-09
1.76054e-08
2.80057e-08
3.07357e-08
2.26505e-07
2.82237e-08
1.30831e-08
9.62134e-09
9.53204e-09
1.16951e-08
1.34591e-08
1.57691e-08
1.90273e-08
4.8329e-08
1.28666e-07
1.72092e-07
6.37189e-08
1.04873e-08
6.19203e-09
4.79808e-09
3.56534e-09
2.94797e-09
2.59552e-09
2.78839e-09
3.14475e-09
3.40151e-09
5.38937e-09
9.17818e-09
1.69103e-08
2.59659e-08
2.88674e-08
5.76807e-07
6.71142e-08
2.20503e-08
1.19939e-08
1.03461e-08
1.08832e-08
1.32273e-08
1.46151e-08
1.70368e-08
1.78436e-08
2.60408e-08
7.31937e-08
1.60592e-07
1.31993e-07
1.67342e-08
6.34177e-09
4.97902e-09
3.62918e-09
2.90203e-09
2.54185e-09
2.74551e-09
3.10215e-09
3.33468e-09
5.16004e-09
8.91051e-09
1.5574e-08
2.41974e-08
2.68248e-08
1.23013e-06
1.68682e-07
5.22512e-08
1.94933e-08
1.32514e-08
1.11264e-08
1.28047e-08
1.44183e-08
1.56575e-08
1.76906e-08
1.76937e-08
1.89428e-08
4.11434e-08
1.21591e-07
1.61304e-07
5.77331e-08
6.38048e-09
5.02373e-09
3.57363e-09
2.82762e-09
2.49695e-09
2.7133e-09
3.03789e-09
3.26581e-09
4.94356e-09
8.48454e-09
1.49914e-08
2.207e-08
2.44272e-08
1.88501e-06
3.7401e-07
1.32679e-07
4.30026e-08
1.8433e-08
1.26687e-08
1.24786e-08
1.45086e-08
1.54233e-08
1.66935e-08
1.75954e-08
1.86117e-08
1.74924e-08
2.43151e-08
7.87048e-08
1.56678e-07
1.04615e-07
8.4121e-09
5.06075e-09
3.65221e-09
2.77737e-09
2.4551e-09
2.67144e-09
2.98741e-09
3.19575e-09
4.73002e-09
8.1968e-09
1.38933e-08
2.03439e-08
2.22726e-08
1.96867e-06
7.12313e-07
3.26597e-07
1.23047e-07
3.6811e-08
1.6455e-08
1.38519e-08
1.40645e-08
1.55494e-08
1.65995e-08
1.71549e-08
1.75753e-08
1.90973e-08
1.82095e-08
1.8756e-08
4.85724e-08
1.22673e-07
1.2043e-07
2.65963e-08
5.56183e-09
3.64652e-09
2.75238e-09
2.44227e-09
2.63614e-09
2.93103e-09
3.10191e-09
4.54102e-09
8.02057e-09
1.34388e-08
1.83374e-08
2.00094e-08
1.88098e-06
8.59082e-07
6.05627e-07
3.58933e-07
1.06614e-07
2.49319e-08
1.70251e-08
1.46974e-08
1.56215e-08
1.67606e-08
1.70396e-08
1.73279e-08
1.81515e-08
1.91547e-08
1.80509e-08
1.88825e-08
3.02001e-08
7.84862e-08
1.1252e-07
4.44016e-08
5.85342e-09
3.7902e-09
2.70334e-09
2.41884e-09
2.58463e-09
2.86319e-09
3.03646e-09
4.39574e-09
7.71258e-09
1.2701e-08
1.67748e-08
1.80713e-08
8.34477e-07
7.7361e-07
7.09061e-07
7.17193e-07
3.5158e-07
5.41956e-08
2.23564e-08
1.71154e-08
1.59148e-08
1.67488e-08
1.71186e-08
1.72439e-08
1.83068e-08
1.94922e-08
2.15433e-08
2.16098e-08
1.91497e-08
2.36669e-08
4.83952e-08
9.13918e-08
5.21879e-08
6.28388e-09
3.91099e-09
2.70783e-09
2.41641e-09
2.53907e-09
2.81603e-09
2.97029e-09
4.19668e-09
7.50405e-09
1.24126e-08
1.50573e-08
1.60989e-08
4.75421e-07
6.39469e-07
3.92408e-07
1.14359e-06
1.06944e-06
1.70807e-07
3.56625e-08
2.1259e-08
1.77357e-08
1.77733e-08
1.74496e-08
1.73836e-08
1.79745e-08
2.00534e-08
2.38276e-08
2.6638e-08
2.58006e-08
2.23757e-08
2.20753e-08
3.14194e-08
7.13384e-08
5.74951e-08
9.43531e-09
4.0452e-09
2.68546e-09
2.44005e-09
2.50595e-09
2.79235e-09
2.95253e-09
4.08248e-09
7.31898e-09
1.19835e-08
1.38051e-08
1.44501e-08
3.86399e-07
4.63179e-07
2.95365e-07
1.11483e-06
1.98962e-06
5.91876e-07
8.03182e-08
2.77501e-08
2.07711e-08
1.94248e-08
1.7941e-08
1.77966e-08
1.81143e-08
1.91209e-08
2.30321e-08
2.5748e-08
2.57102e-08
2.53842e-08
2.34401e-08
2.17661e-08
2.40706e-08
5.07632e-08
5.67776e-08
1.45969e-08
4.10663e-09
2.73876e-09
2.48176e-09
2.4902e-09
2.80138e-09
2.9638e-09
3.92745e-09
7.05452e-09
1.18098e-08
1.24951e-08
1.27992e-08
3.92916e-07
3.48053e-07
2.87782e-07
4.62344e-07
2.7865e-06
1.77122e-06
2.48669e-07
4.55189e-08
2.44425e-08
2.08856e-08
1.90596e-08
1.8131e-08
1.81232e-08
1.90142e-08
2.22999e-08
2.46064e-08
2.50429e-08
2.38685e-08
2.41809e-08
2.43982e-08
2.21201e-08
2.22144e-08
3.75156e-08
5.30108e-08
1.94653e-08
4.47432e-09
2.80214e-09
2.48872e-09
2.52962e-09
2.83305e-09
2.98788e-09
3.84825e-09
6.90117e-09
1.15841e-08
1.16437e-08
1.15932e-08
3.90859e-07
4.01264e-07
3.52218e-07
3.97857e-07
1.59947e-06
3.53082e-06
8.38454e-07
1.05678e-07
3.18761e-08
2.38812e-08
2.09731e-08
1.8768e-08
1.85641e-08
1.91099e-08
2.04159e-08
2.40288e-08
2.5342e-08
2.58659e-08
2.63083e-08
2.61979e-08
2.57874e-08
2.38193e-08
2.24002e-08
2.95217e-08
4.89173e-08
2.33675e-08
4.89554e-09
2.90656e-09
2.53166e-09
2.58678e-09
2.89243e-09
3.01786e-09
3.7712e-09
6.78784e-09
1.14713e-08
1.07831e-08
1.05997e-08
4.81753e-07
4.61478e-07
4.7273e-07
4.44664e-07
8.04636e-07
4.63132e-06
2.41881e-06
3.35336e-07
5.25904e-08
2.68647e-08
2.34482e-08
1.9262e-08
1.89461e-08
1.92895e-08
2.02166e-08
2.29345e-08
2.51483e-08
2.65083e-08
2.72545e-08
2.74608e-08
2.67875e-08
2.73653e-08
2.58784e-08
2.37718e-08
2.51875e-08
4.5303e-08
2.78043e-08
5.15838e-09
3.02918e-09
2.55743e-09
2.70299e-09
2.91503e-09
3.07956e-09
3.81901e-09
6.86635e-09
1.14312e-08
1.03373e-08
1.00301e-08
6.25946e-07
5.94163e-07
6.52351e-07
6.84669e-07
7.64486e-07
1.95664e-06
5.26518e-06
1.09507e-06
1.23058e-07
3.39764e-08
2.59376e-08
1.99357e-08
1.9287e-08
1.96753e-08
2.04593e-08
2.19395e-08
2.46621e-08
2.65889e-08
2.81586e-08
2.88984e-08
2.9941e-08
2.80032e-08
2.72227e-08
2.59454e-08
2.40148e-08
2.48281e-08
4.38877e-08
3.23934e-08
6.32352e-09
3.34311e-09
2.65771e-09
2.7812e-09
2.92298e-09
3.12772e-09
3.87516e-09
7.06277e-09
1.14377e-08
9.87675e-09
9.82357e-09
8.24745e-07
7.86402e-07
9.04471e-07
9.65232e-07
1.14412e-06
1.54684e-06
6.73079e-06
2.85797e-06
3.86595e-07
5.50409e-08
2.85928e-08
2.27734e-08
1.9187e-08
1.97329e-08
2.07621e-08
2.20279e-08
2.38394e-08
2.67847e-08
2.78285e-08
3.25587e-08
3.58663e-08
3.53873e-08
3.1723e-08
2.88988e-08
2.7024e-08
2.48633e-08
2.5079e-08
3.94449e-08
3.63237e-08
1.06552e-08
3.49494e-09
2.78362e-09
2.93434e-09
2.93717e-09
3.14275e-09
3.92339e-09
7.16347e-09
1.15769e-08
9.68865e-09
9.8984e-09
1.06783e-06
1.02677e-06
1.24232e-06
1.33555e-06
1.62445e-06
1.86723e-06
2.29056e-06
7.12647e-06
1.22193e-06
1.29134e-07
3.45497e-08
2.60866e-08
1.98611e-08
2.03404e-08
2.07329e-08
2.18804e-08
2.41852e-08
2.67236e-08
2.86452e-08
3.18353e-08
3.90006e-08
4.35258e-08
4.55195e-08
4.21756e-08
3.5026e-08
3.17676e-08
2.72445e-08
2.55614e-08
3.28791e-08
3.81618e-08
1.72619e-08
3.97957e-09
2.91791e-09
2.99161e-09
2.94093e-09
3.14028e-09
4.00404e-09
7.1474e-09
1.17927e-08
9.39144e-09
9.87225e-09
1.35129e-06
1.31754e-06
1.62248e-06
1.80167e-06
2.17694e-06
2.55626e-06
3.55504e-06
9.95422e-06
3.05175e-06
4.01476e-07
5.28925e-08
2.93092e-08
2.15855e-08
2.10187e-08
2.08438e-08
2.25531e-08
2.39972e-08
2.72211e-08
2.98651e-08
3.17227e-08
3.7214e-08
4.88312e-08
5.06893e-08
5.58456e-08
5.46137e-08
5.04822e-08
4.72837e-08
3.47474e-08
2.64136e-08
3.33696e-08
3.81721e-08
2.29215e-08
4.21104e-09
3.15421e-09
3.05989e-09
3.12002e-09
3.14901e-09
4.02828e-09
7.22587e-09
1.19412e-08
9.30796e-09
9.93356e-09
1.69998e-06
1.65294e-06
2.04898e-06
2.35431e-06
2.88363e-06
3.4151e-06
4.08615e-06
4.23165e-06
7.99136e-06
1.27806e-06
1.11144e-07
3.45287e-08
2.54769e-08
2.11234e-08
2.19012e-08
2.25283e-08
2.34738e-08
2.72604e-08
3.01669e-08
3.25667e-08
3.75379e-08
4.43846e-08
5.15261e-08
5.94402e-08
6.02066e-08
6.01253e-08
6.30472e-08
6.19974e-08
5.59327e-08
3.16637e-08
3.41653e-08
3.685e-08
2.7023e-08
6.55981e-09
3.28257e-09
3.31018e-09
3.20281e-09
3.2436e-09
4.08971e-09
7.30193e-09
1.2005e-08
9.04228e-09
1.00719e-08
2.03876e-06
2.01433e-06
2.51321e-06
2.96847e-06
3.69556e-06
4.41195e-06
5.46094e-06
6.62858e-06
1.06544e-05
3.18171e-06
3.24916e-07
4.60118e-08
3.09581e-08
2.19391e-08
2.25615e-08
2.23652e-08
2.36814e-08
2.62883e-08
3.05023e-08
3.51606e-08
3.74372e-08
4.32356e-08
4.95769e-08
5.55107e-08
6.19116e-08
6.39323e-08
6.67665e-08
6.91848e-08
7.14767e-08
6.66998e-08
4.25131e-08
3.43435e-08
3.26742e-08
3.02709e-08
1.02618e-08
3.41247e-09
3.46655e-09
3.21707e-09
3.3629e-09
4.16212e-09
7.35191e-09
1.19979e-08
8.9494e-09
1.01783e-08
2.47133e-06
2.266e-06
2.9339e-06
3.65368e-06
4.52388e-06
5.47067e-06
6.76673e-06
8.25843e-06
7.50602e-06
7.88639e-06
1.0021e-06
7.9426e-08
3.46258e-08
2.50821e-08
2.29685e-08
2.32866e-08
2.41742e-08
2.60424e-08
3.04006e-08
3.46011e-08
3.89374e-08
4.25693e-08
4.67534e-08
5.3876e-08
5.69756e-08
6.19151e-08
6.65e-08
6.89987e-08
7.31069e-08
7.5335e-08
7.6621e-08
5.17046e-08
3.60023e-08
3.32727e-08
3.08325e-08
1.42966e-08
3.66982e-09
3.42965e-09
3.2158e-09
3.46221e-09
4.25379e-09
7.41448e-09
1.19737e-08
8.76761e-09
1.03766e-08
3.33308e-06
2.43456e-06
3.16202e-06
4.15394e-06
5.46751e-06
6.51957e-06
8.06986e-06
1.02631e-05
1.16924e-05
1.12052e-05
2.54842e-06
1.92011e-07
4.18837e-08
3.26392e-08
2.28864e-08
2.46968e-08
2.46979e-08
2.64154e-08
2.9324e-08
3.5574e-08
4.06582e-08
4.44445e-08
4.63941e-08
4.90471e-08
5.5938e-08
5.84498e-08
6.34202e-08
6.99042e-08
7.13182e-08
7.6298e-08
8.12172e-08
8.06403e-08
6.45196e-08
3.8673e-08
3.45569e-08
3.19228e-08
1.69745e-08
3.89892e-09
3.41319e-09
3.18169e-09
3.45045e-09
4.36825e-09
7.44739e-09
1.1889e-08
8.77483e-09
1.05517e-08
6.12638e-06
2.59801e-06
3.17647e-06
4.34011e-06
6.33405e-06
7.56168e-06
9.29344e-06
1.14593e-05
1.42421e-05
1.13894e-05
7.7233e-06
5.31819e-07
6.0622e-08
3.64086e-08
2.54666e-08
2.48387e-08
2.54003e-08
2.78331e-08
2.9816e-08
3.57729e-08
4.13643e-08
4.6199e-08
4.73788e-08
4.88442e-08
5.19489e-08
5.74852e-08
6.17376e-08
6.59735e-08
7.15127e-08
7.33035e-08
8.16808e-08
8.48532e-08
8.18038e-08
7.52658e-08
4.434e-08
3.43827e-08
3.31276e-08
1.91148e-08
4.22541e-09
3.39268e-09
3.05063e-09
3.51018e-09
4.45564e-09
7.51011e-09
1.1772e-08
8.84911e-09
1.08242e-08
1.21921e-05
3.29591e-06
2.46824e-06
4.23756e-06
6.60136e-06
8.71141e-06
1.0349e-05
1.27334e-05
1.43976e-05
1.45561e-05
1.16511e-05
1.31097e-06
1.10807e-07
4.79028e-08
3.48495e-08
2.4023e-08
2.72238e-08
2.73241e-08
3.06556e-08
3.40792e-08
4.13464e-08
4.68832e-08
5.03998e-08
4.9705e-08
5.03712e-08
5.38517e-08
5.84852e-08
6.44801e-08
6.70172e-08
7.29337e-08
7.93016e-08
8.00213e-08
8.18311e-08
8.34982e-08
8.12267e-08
5.80237e-08
3.61127e-08
3.60295e-08
2.0581e-08
4.23874e-09
3.34743e-09
2.88929e-09
3.41771e-09
4.54676e-09
7.54296e-09
1.16662e-08
8.89989e-09
1.1066e-08
2.17729e-05
6.58899e-06
2.45536e-06
2.49358e-06
6.13368e-06
9.45171e-06
1.13265e-05
1.35831e-05
1.57057e-05
2.10132e-05
1.3172e-05
3.97865e-06
2.34279e-07
7.42205e-08
4.3588e-08
2.86788e-08
2.56316e-08
2.76985e-08
2.9859e-08
3.34068e-08
4.05201e-08
4.69719e-08
5.08941e-08
5.3426e-08
5.02553e-08
5.10428e-08
5.73911e-08
6.00903e-08
6.5655e-08
6.6989e-08
7.44713e-08
7.87229e-08
7.68999e-08
7.70157e-08
8.69455e-08
8.75115e-08
7.31838e-08
3.88367e-08
3.61381e-08
2.1893e-08
4.68997e-09
3.28104e-09
2.73956e-09
3.39816e-09
4.64416e-09
7.58379e-09
1.15583e-08
8.96799e-09
1.14805e-08
2.99586e-05
1.35249e-05
4.48779e-06
1.64104e-06
3.51276e-06
8.30501e-06
1.19393e-05
1.39206e-05
1.60015e-05
1.88143e-05
1.47842e-05
1.02246e-05
4.91192e-07
1.23951e-07
6.67463e-08
4.33959e-08
2.82796e-08
2.77277e-08
2.84928e-08
3.37093e-08
3.88222e-08
4.86309e-08
5.20169e-08
5.45977e-08
5.24246e-08
5.1117e-08
5.19076e-08
5.88849e-08
6.13666e-08
6.54054e-08
6.84364e-08
7.44803e-08
7.54681e-08
7.3365e-08
7.61677e-08
8.65342e-08
9.23799e-08
8.27655e-08
4.80321e-08
3.71077e-08
2.29678e-08
4.7881e-09
3.17709e-09
2.70482e-09
3.31914e-09
4.77688e-09
7.64791e-09
1.14736e-08
9.05335e-09
1.18745e-08
3.07922e-05
2.28639e-05
9.51988e-06
1.83364e-06
1.32925e-06
5.13515e-06
1.10753e-05
1.39049e-05
1.55713e-05
1.84423e-05
1.9726e-05
1.18714e-05
1.12446e-06
2.27567e-07
1.23252e-07
7.09545e-08
4.15619e-08
2.85365e-08
2.87275e-08
2.96131e-08
3.88817e-08
4.71785e-08
5.21776e-08
5.59597e-08
5.41506e-08
5.33615e-08
5.05154e-08
5.56904e-08
6.01732e-08
6.16639e-08
6.64713e-08
7.09081e-08
7.14941e-08
6.95695e-08
7.14041e-08
7.58837e-08
8.41188e-08
9.55005e-08
8.87039e-08
5.56025e-08
3.71269e-08
2.41311e-08
5.15468e-09
3.14745e-09
2.65768e-09
3.28496e-09
4.84846e-09
7.7264e-09
1.14013e-08
8.93417e-09
1.22627e-08
2.90788e-05
2.53393e-05
1.78648e-05
3.57995e-06
9.53115e-07
1.74969e-06
7.6202e-06
1.27686e-05
1.49105e-05
1.70629e-05
2.50458e-05
1.44624e-05
9.6046e-06
4.3532e-07
2.2462e-07
1.29625e-07
7.61767e-08
3.97338e-08
2.87886e-08
2.89747e-08
3.34709e-08
4.47937e-08
5.19115e-08
5.51062e-08
5.50446e-08
5.34695e-08
5.18699e-08
5.15787e-08
5.73548e-08
6.02625e-08
6.31052e-08
6.68147e-08
6.99989e-08
6.73192e-08
6.50895e-08
7.15426e-08
7.84948e-08
8.24193e-08
9.35703e-08
9.10616e-08
6.4234e-08
3.92124e-08
2.52206e-08
5.23954e-09
3.05203e-09
2.77627e-09
3.33682e-09
5.02042e-09
7.84557e-09
1.1373e-08
9.04928e-09
1.27509e-08
2.41713e-05
2.55379e-05
2.03827e-05
7.87727e-06
1.37884e-06
6.83369e-07
3.15451e-06
9.85666e-06
1.40472e-05
1.56687e-05
2.10759e-05
1.74132e-05
1.01969e-05
7.21167e-07
4.04229e-07
2.50781e-07
1.19571e-07
6.48957e-08
3.68483e-08
2.94379e-08
2.99307e-08
3.88862e-08
5.12714e-08
5.60349e-08
5.69208e-08
5.41316e-08
5.11684e-08
5.08823e-08
5.42541e-08
5.87778e-08
6.08547e-08
6.48809e-08
6.63783e-08
6.58948e-08
6.31008e-08
6.24634e-08
6.89762e-08
7.62341e-08
7.70283e-08
8.57265e-08
8.54597e-08
7.2064e-08
4.39957e-08
2.60227e-08
5.52307e-09
2.88651e-09
3.101e-09
3.48963e-09
5.2154e-09
8.01254e-09
1.13952e-08
9.06792e-09
1.3347e-08
2.15685e-05
2.17669e-05
2.20345e-05
1.17708e-05
2.96861e-06
5.45669e-07
7.89045e-07
5.48212e-06
1.16682e-05
1.44104e-05
1.97224e-05
2.16314e-05
1.27137e-05
8.81777e-07
7.2482e-07
4.69069e-07
2.46992e-07
1.3046e-07
6.71996e-08
3.107e-08
2.94715e-08
3.15856e-08
5.11642e-08
5.9114e-08
5.75448e-08
5.50409e-08
4.94507e-08
5.03435e-08
5.13306e-08
5.67705e-08
5.97387e-08
6.213e-08
6.52031e-08
6.25057e-08
6.01698e-08
5.85853e-08
6.07985e-08
6.28507e-08
6.94444e-08
6.77524e-08
7.21306e-08
8.07545e-08
7.06948e-08
5.01231e-08
2.77115e-08
5.94336e-09
3.00434e-09
3.64831e-09
3.6399e-09
5.4126e-09
8.25898e-09
1.14714e-08
9.03365e-09
1.42564e-08
1.94666e-05
1.91286e-05
2.10842e-05
1.27357e-05
5.61862e-06
8.85266e-07
3.54393e-07
1.51136e-06
7.87574e-06
1.25839e-05
1.83271e-05
3.33406e-05
1.46992e-05
1.86637e-06
9.85985e-07
7.86811e-07
5.32118e-07
3.04012e-07
1.56388e-07
3.84793e-08
3.00658e-08
3.06361e-08
3.57182e-08
5.79238e-08
6.53105e-08
5.78586e-08
4.8867e-08
4.82644e-08
5.0037e-08
5.25549e-08
5.82397e-08
6.06731e-08
6.22008e-08
6.27144e-08
5.79471e-08
5.49246e-08
5.59599e-08
5.93334e-08
5.74223e-08
6.02583e-08
5.51936e-08
5.78841e-08
7.29926e-08
6.79594e-08
5.47242e-08
3.11055e-08
6.0652e-09
3.05744e-09
4.64521e-09
3.89104e-09
5.56333e-09
8.60634e-09
1.16305e-08
9.19091e-09
1.50079e-08
1.74878e-05
1.73081e-05
1.8269e-05
1.52312e-05
6.26724e-06
1.67411e-06
2.99861e-07
3.91159e-07
3.46133e-06
9.48055e-06
1.5694e-05
2.88979e-05
1.86481e-05
7.32474e-06
1.32833e-06
1.49691e-06
1.15593e-06
7.68963e-07
4.10162e-07
6.33554e-08
3.40944e-08
3.07612e-08
3.15706e-08
4.77069e-08
6.54821e-08
6.35895e-08
4.9584e-08
4.69328e-08
4.80801e-08
5.07207e-08
5.43731e-08
5.94637e-08
6.10559e-08
6.20934e-08
5.74137e-08
5.33121e-08
5.06091e-08
5.37533e-08
5.51699e-08
5.04019e-08
4.51499e-08
4.35002e-08
4.59594e-08
6.31075e-08
6.44561e-08
5.32683e-08
3.07395e-08
6.47356e-09
3.29766e-09
6.67616e-09
4.11489e-09
5.80823e-09
9.14729e-09
1.18812e-08
9.14433e-09
1.64153e-08
1.52958e-05
1.58199e-05
1.67391e-05
1.5038e-05
7.53075e-06
2.26992e-06
4.67315e-07
1.98711e-07
9.05527e-07
5.92297e-06
1.24391e-05
2.57861e-05
2.60336e-05
1.00671e-05
1.66618e-06
2.40825e-06
2.97859e-06
2.05068e-06
1.11424e-06
1.60535e-07
4.69807e-08
3.12912e-08
2.96736e-08
3.48067e-08
5.89686e-08
6.77652e-08
5.36173e-08
4.72125e-08
4.54582e-08
4.88989e-08
5.16371e-08
5.58468e-08
5.98959e-08
6.21203e-08
5.73753e-08
5.28303e-08
4.85517e-08
4.85141e-08
5.06964e-08
4.73456e-08
3.91974e-08
3.36788e-08
3.25161e-08
3.59812e-08
5.2205e-08
5.84149e-08
5.06497e-08
2.94952e-08
6.51873e-09
3.65507e-09
1.03792e-08
4.21626e-09
6.05659e-09
9.68434e-09
1.22927e-08
9.20318e-09
1.79337e-08
1.3304e-05
1.53058e-05
1.50878e-05
1.43856e-05
7.49723e-06
2.45731e-06
7.06545e-07
1.63879e-07
3.07241e-07
2.6325e-06
9.44245e-06
2.5953e-05
2.94584e-05
1.26774e-05
4.59657e-06
5.73064e-06
6.74684e-06
5.50071e-06
2.91122e-06
4.94989e-07
7.92241e-08
3.9862e-08
3.0638e-08
3.11168e-08
4.52841e-08
6.50447e-08
6.06234e-08
4.967e-08
4.46761e-08
4.53377e-08
4.97797e-08
5.21554e-08
5.79108e-08
5.95857e-08
6.02444e-08
5.14837e-08
4.8155e-08
4.48383e-08
4.84377e-08
4.55875e-08
3.69894e-08
3.02633e-08
2.63134e-08
2.46428e-08
2.75017e-08
4.16861e-08
4.9975e-08
4.66565e-08
2.76778e-08
6.88059e-09
4.49127e-09
1.5362e-08
4.32256e-09
6.31542e-09
1.05119e-08
1.29198e-08
9.31921e-09
1.99677e-08
1.19604e-05
1.3974e-05
1.50792e-05
1.33232e-05
8.1717e-06
2.68017e-06
7.89883e-07
2.00936e-07
1.72053e-07
1.0567e-06
7.21983e-06
2.23285e-05
4.11316e-05
1.66775e-05
8.11813e-06
4.66238e-06
1.47624e-05
1.29581e-05
7.55958e-06
1.4424e-06
1.87411e-07
5.67678e-08
3.39105e-08
3.11989e-08
3.59295e-08
5.56806e-08
6.52708e-08
5.3582e-08
4.47725e-08
4.40986e-08
4.67492e-08
4.95884e-08
5.39646e-08
5.87129e-08
5.82841e-08
5.35175e-08
4.6491e-08
4.36261e-08
4.40392e-08
4.60443e-08
3.8529e-08
2.90944e-08
2.40211e-08
2.03626e-08
1.96662e-08
2.13466e-08
3.21771e-08
4.13999e-08
4.19751e-08
2.53876e-08
6.36702e-09
6.15088e-09
1.67354e-08
4.44317e-09
6.79494e-09
1.14319e-08
1.34696e-08
9.587e-09
2.22188e-08
1.09964e-05
1.242e-05
1.38397e-05
1.19846e-05
7.42651e-06
2.64382e-06
9.26902e-07
3.00242e-07
1.33162e-07
5.11275e-07
4.18013e-06
2.08865e-05
4.84142e-05
2.35644e-05
9.61652e-06
6.84681e-06
1.20705e-05
2.73265e-05
1.66073e-05
4.20335e-06
5.53069e-07
1.00878e-07
4.64594e-08
3.21804e-08
3.28885e-08
4.7594e-08
6.368e-08
5.95816e-08
4.66066e-08
4.37923e-08
4.38328e-08
4.71923e-08
5.02672e-08
5.52601e-08
5.71685e-08
5.45755e-08
4.66473e-08
4.35769e-08
4.17678e-08
4.59705e-08
3.99229e-08
3.00063e-08
2.29799e-08
1.851e-08
1.67838e-08
1.62679e-08
1.73298e-08
2.50073e-08
3.37017e-08
3.74335e-08
2.27394e-08
6.059e-09
8.30276e-09
1.34226e-08
4.47313e-09
7.44738e-09
1.25753e-08
1.42998e-08
9.96505e-09
2.47288e-08
1.02221e-05
1.1286e-05
1.21057e-05
1.16884e-05
7.68106e-06
2.65903e-06
1.05323e-06
3.94546e-07
1.15535e-07
2.95154e-07
2.67155e-06
1.66509e-05
4.85121e-05
3.20992e-05
1.23382e-05
8.80499e-06
9.75717e-06
2.90237e-05
3.28062e-05
1.18349e-05
1.7874e-06
2.66613e-07
7.27754e-08
3.62731e-08
3.26806e-08
3.94009e-08
5.93345e-08
6.63035e-08
5.12704e-08
4.43009e-08
4.31427e-08
4.38159e-08
4.76763e-08
5.21869e-08
5.68948e-08
5.57621e-08
4.66153e-08
4.40574e-08
4.14562e-08
4.06103e-08
4.49179e-08
3.32665e-08
2.36053e-08
1.90641e-08
1.56616e-08
1.43159e-08
1.42065e-08
1.48961e-08
1.95273e-08
2.68625e-08
3.27119e-08
2.01696e-08
5.70474e-09
1.02011e-08
4.69825e-09
4.52958e-09
8.12798e-09
1.39011e-08
1.51354e-08
1.012e-08
2.73217e-08
9.5254e-06
1.03237e-05
1.08602e-05
1.0763e-05
7.04895e-06
2.4722e-06
1.119e-06
4.85389e-07
1.30006e-07
1.75754e-07
1.64462e-06
1.39334e-05
5.77112e-05
4.0391e-05
1.66915e-05
1.02763e-05
9.26199e-06
2.41589e-05
4.19901e-05
2.78152e-05
6.03249e-06
8.08591e-07
1.44415e-07
5.3552e-08
3.31049e-08
3.50727e-08
5.55248e-08
6.81942e-08
5.9737e-08
4.65794e-08
4.30919e-08
4.30086e-08
4.35203e-08
4.79808e-08
5.43207e-08
5.61322e-08
5.06673e-08
4.35685e-08
4.2311e-08
3.99753e-08
4.00793e-08
3.88935e-08
2.71071e-08
1.94296e-08
1.63136e-08
1.36394e-08
1.2938e-08
1.31067e-08
1.32967e-08
1.6257e-08
2.1518e-08
2.83628e-08
1.74372e-08
5.72091e-09
1.08925e-08
4.29879e-09
4.83705e-09
8.87435e-09
1.56061e-08
1.6087e-08
1.04409e-08
2.98684e-08
8.87221e-06
9.43899e-06
9.90485e-06
9.10999e-06
6.57079e-06
2.33384e-06
1.14529e-06
6.04458e-07
1.60913e-07
1.13007e-07
1.08473e-06
9.87622e-06
5.35495e-05
6.46339e-05
2.41513e-05
1.22377e-05
9.59433e-06
1.51968e-05
2.08573e-05
4.81263e-05
1.8217e-05
2.76415e-06
3.91994e-07
9.84503e-08
3.73564e-08
3.36459e-08
4.56517e-08
6.57755e-08
7.02033e-08
5.17319e-08
4.44833e-08
4.25072e-08
4.2446e-08
4.43355e-08
4.99355e-08
5.60907e-08
5.21843e-08
4.54717e-08
4.20098e-08
4.11282e-08
3.7833e-08
4.32882e-08
3.22049e-08
2.156e-08
1.58636e-08
1.40969e-08
1.2618e-08
1.21951e-08
1.21839e-08
1.26035e-08
1.41043e-08
1.79866e-08
2.46695e-08
1.52886e-08
5.50933e-09
1.06622e-08
4.71335e-09
5.11848e-09
9.84791e-09
1.76306e-08
1.70778e-08
1.1011e-08
3.2199e-08
8.02791e-06
8.65874e-06
8.7485e-06
7.9268e-06
4.43262e-06
2.12829e-06
1.16243e-06
7.11072e-07
2.00917e-07
9.19473e-08
5.00372e-07
7.64272e-06
4.7416e-05
0.000117149
4.09257e-05
1.66002e-05
1.15633e-05
1.09141e-05
1.52039e-05
4.41337e-05
4.24558e-05
9.12688e-06
1.22552e-06
2.20267e-07
5.68296e-08
3.3221e-08
3.64e-08
6.60344e-08
7.29592e-08
6.09022e-08
4.90105e-08
4.27916e-08
4.19644e-08
4.20999e-08
4.57429e-08
5.22665e-08
5.702e-08
4.78875e-08
4.33132e-08
4.09785e-08
3.93745e-08
3.71819e-08
4.34779e-08
2.66982e-08
1.7972e-08
1.43077e-08
1.26725e-08
1.18369e-08
1.15465e-08
1.16288e-08
1.19631e-08
1.29038e-08
1.5739e-08
2.18429e-08
1.29906e-08
5.33681e-09
1.04677e-08
5.26067e-09
5.38204e-09
1.10161e-08
2.01008e-08
1.82839e-08
1.15454e-08
3.41242e-08
7.70904e-06
7.67805e-06
8.25824e-06
6.65396e-06
2.6912e-06
1.99768e-06
1.20494e-06
8.04734e-07
2.85755e-07
8.9078e-08
2.05746e-07
4.01643e-06
4.36373e-05
0.00014559
5.57949e-05
2.69896e-05
1.46785e-05
1.14522e-05
1.12746e-05
1.6069e-05
7.03171e-05
2.59486e-05
4.35282e-06
6.152e-07
1.17141e-07
3.51676e-08
3.35733e-08
4.70411e-08
7.25137e-08
7.2916e-08
5.70324e-08
4.46056e-08
4.19585e-08
4.14244e-08
4.2106e-08
4.86622e-08
5.45758e-08
5.17386e-08
4.5261e-08
4.12129e-08
4.01387e-08
3.77688e-08
3.65584e-08
3.625e-08
2.21581e-08
1.53229e-08
1.30681e-08
1.16221e-08
1.10569e-08
1.08315e-08
1.12857e-08
1.1374e-08
1.22708e-08
1.43717e-08
1.97353e-08
1.12463e-08
5.40129e-09
9.82682e-09
5.54885e-09
5.59108e-09
1.24432e-08
2.27863e-08
1.93418e-08
1.22072e-08
3.56785e-08
7.30328e-06
7.58954e-06
7.04743e-06
5.39695e-06
2.45168e-06
1.49445e-06
1.31803e-06
9.18593e-07
3.99323e-07
9.42594e-08
1.02517e-07
1.64719e-06
2.39012e-05
0.000164221
0.000233945
4.70682e-05
2.25134e-05
1.31362e-05
1.14187e-05
1.20743e-05
3.83468e-05
5.89582e-05
1.34614e-05
1.87007e-06
2.73635e-07
4.32742e-08
3.30962e-08
3.68868e-08
6.75191e-08
7.55434e-08
7.23649e-08
5.00112e-08
4.26833e-08
4.14794e-08
4.11724e-08
4.23482e-08
5.0715e-08
5.46829e-08
4.97164e-08
4.32909e-08
4.18638e-08
3.87063e-08
3.73116e-08
3.77568e-08
3.03471e-08
1.87847e-08
1.37556e-08
1.21232e-08
1.07831e-08
1.04135e-08
1.00684e-08
1.06249e-08
1.08792e-08
1.18828e-08
1.36777e-08
1.83435e-08
9.59153e-09
5.59313e-09
9.32877e-09
5.76344e-09
5.65689e-09
1.43311e-08
2.63408e-08
2.08408e-08
1.28127e-08
3.70079e-08
6.86164e-06
6.56011e-06
6.40405e-06
4.064e-06
2.01504e-06
1.48258e-06
1.33963e-06
1.04697e-06
5.29598e-07
1.17923e-07
8.11123e-08
6.21935e-07
1.28248e-05
9.8271e-05
0.000474479
0.000268377
5.26549e-05
2.01897e-05
1.26457e-05
1.15551e-05
1.35755e-05
0.000104078
3.44989e-05
5.90858e-06
7.7353e-07
7.16648e-08
3.20566e-08
3.4056e-08
4.56786e-08
7.6689e-08
8.33583e-08
5.97825e-08
4.48435e-08
4.19156e-08
4.06204e-08
4.12109e-08
4.41586e-08
5.31587e-08
5.18127e-08
4.75393e-08
4.21614e-08
3.93475e-08
3.7281e-08
3.7335e-08
3.58111e-08
2.58866e-08
1.5915e-08
1.27745e-08
1.12846e-08
9.96217e-09
9.96027e-09
9.42691e-09
9.94137e-09
1.04134e-08
1.13244e-08
1.28291e-08
1.7102e-08
8.2563e-09
5.29475e-09
8.82761e-09
5.77555e-09
5.88926e-09
1.6438e-08
3.0779e-08
2.23874e-08
1.35886e-08
3.81053e-08
6.29269e-06
5.66886e-06
5.04816e-06
3.03047e-06
1.97434e-06
1.55686e-06
1.46525e-06
1.22894e-06
6.92563e-07
1.59214e-07
7.33612e-08
2.8745e-07
4.74657e-06
6.63414e-05
0.000282641
0.000647617
0.000418691
4.10526e-05
1.82442e-05
1.22851e-05
1.16889e-05
4.52922e-05
8.16616e-05
1.71979e-05
2.21504e-06
1.57612e-07
2.97636e-08
3.27593e-08
3.61476e-08
6.26777e-08
8.09891e-08
7.80577e-08
5.10535e-08
4.25506e-08
4.13951e-08
4.01452e-08
4.08553e-08
4.75414e-08
5.21067e-08
5.1469e-08
4.59906e-08
4.09528e-08
3.79103e-08
3.6351e-08
3.75652e-08
3.08961e-08
2.22386e-08
1.43369e-08
1.18722e-08
1.04891e-08
9.33761e-09
9.37658e-09
8.9685e-09
9.47882e-09
9.99799e-09
1.09198e-08
1.21525e-08
1.61672e-08
7.2925e-09
5.39831e-09
8.67048e-09
5.29662e-09
6.26873e-09
1.90046e-08
3.58373e-08
2.40662e-08
1.41432e-08
3.94654e-08
5.86491e-06
4.90129e-06
3.71238e-06
2.47301e-06
1.90471e-06
1.71283e-06
1.69554e-06
1.48591e-06
9.02785e-07
2.25904e-07
7.17379e-08
1.38976e-07
1.96418e-06
2.80788e-05
0.000186901
0.000773955
0.000997779
0.000301973
3.30072e-05
1.52008e-05
1.14977e-05
2.14959e-05
0.000122627
4.25333e-05
5.48833e-06
3.98636e-07
3.09642e-08
2.93703e-08
3.33634e-08
4.1601e-08
8.08825e-08
8.63952e-08
6.65374e-08
4.43266e-08
4.18435e-08
4.06639e-08
3.98621e-08
4.09622e-08
4.93454e-08
5.1049e-08
5.17613e-08
4.49405e-08
3.81055e-08
3.69331e-08
3.52873e-08
3.92594e-08
2.69038e-08
1.91733e-08
1.2905e-08
1.11929e-08
9.75614e-09
8.81413e-09
8.89824e-09
8.64295e-09
9.07376e-09
9.84296e-09
1.03943e-08
1.16675e-08
1.50673e-08
6.69493e-09
4.99573e-09
8.11813e-09
5.24442e-09
6.58906e-09
2.22155e-08
4.17252e-08
2.62673e-08
1.48068e-08
4.05731e-08
5.7753e-06
4.41511e-06
2.93649e-06
2.15055e-06
1.98926e-06
1.96455e-06
2.04353e-06
1.7963e-06
1.14315e-06
3.13671e-07
8.19153e-08
9.96945e-08
8.53442e-07
1.1861e-05
0.000117005
0.000429443
0.00108339
0.00101305
0.000184891
2.27872e-05
1.25068e-05
1.23195e-05
3.52619e-05
8.05262e-05
1.2112e-05
9.32079e-07
4.43716e-08
2.47594e-08
3.1485e-08
3.49683e-08
5.25149e-08
8.67854e-08