/*--------------------------------*- C++ -*----------------------------------*\
| =========                 |                                                 |
| \\      /  F ield         | OpenFOAM: The Open Source CFD Toolbox           |
|  \\    /   O peration     | Version:  2212                                  |
|   \\  /    A nd           | Website:  www.openfoam.com                      |
|    \\/     M anipulation  |                                                 |
\*---------------------------------------------------------------------------*/
FoamFile
{
    version     2.0;
    format      ascii;
    arch        "LSB;label=32;scalar=64";
    class       volScalarField;
    location    "100";
    object      omega;
}
// * * * * * * * * * * * * * * * * * * * * * * * * * * * * * * * * * * * * * //

dimensions      [0 0 -1 0 0 0 0];

internalField   nonuniform List<scalar> 
165000
(
1011.47
842.786
1056.92
655.593
866.905
1074.11
551.013
658.179
875.52
1106.15
511.954
549.92
655.827
890.935
1124.74
503.43
512.367
547.805
655.582
898.863
1155.84
497.734
503.579
510.347
546.804
654.7
911.628
1175.6
489.725
501.835
501.693
509.67
543.356
653.765
917.663
1205.99
482.56
496.839
503.609
506.477
507.131
540.37
649.935
926.177
1226.88
453.456
489.719
500.913
509.624
507.84
508.718
536.005
646.583
930.301
1256.91
3682.56
459.749
491.033
506.256
515.733
510.92
509.484
533.08
639.733
935.297
1278.65
5511.57
726.226
463.561
495.63
512.78
525.071
516.56
513.237
530.506
634.519
937.451
1308.63
5241.01
1971.76
467.889
480.736
501.984
522.832
536.493
525.854
515.207
529.262
626.391
938.869
1330.6
4354.54
2842.24
652.537
444.397
486.203
512.566
533.744
549.617
535.75
519.677
528.615
620.625
936.357
1359.8
2668.25
2733.75
1239.72
469.486
448.54
495.529
520.291
545.996
562.34
549.879
523.512
528.162
612.498
935.164
1380.75
1456.51
2025.69
1304.32
675.283
446.798
461.876
502.358
530.103
558.131
578.774
565.051
527.909
528.111
606.487
929.627
1408.2
1126.97
1059.99
1125.51
792.03
507.111
439.554
471.173
511.284
541.233
574.793
593.787
582.854
532.04
528.637
598.318
923.698
1428.07
1225.94
919.708
852.639
780.86
585.758
462.315
442.573
482.301
515.087
555.229
587.993
608.957
598.855
537.088
528.866
591.652
912.86
1444.66
692.033
1222.5
832.676
754.66
627.096
510.135
451.546
447.707
490.065
527.188
569.016
602.659
623.536
615.495
542.57
529.794
583.132
900.855
1441.33
481.914
773.086
1151.97
807.622
679.147
586.669
481.588
449.967
457.823
497.737
534.51
585.904
616.579
640.216
632.353
549.568
530.479
575.977
883.495
1440.02
460.806
498.219
909.74
1141.13
828.243
678.725
570.176
463.415
456.019
466.328
504.309
549.655
594.851
630.891
659.021
652.217
557.236
531.817
567.24
865.511
1446.62
471.438
469.993
508.094
942.497
1081.66
876.049
657.381
538.568
477.062
461.542
474.419
515.607
567.056
607.172
648.382
677.426
672.293
566.855
533.321
560.298
844.048
1477.86
486.947
477.42
471.105
527.41
758.693
1050.72
766.652
576.259
543.598
492.751
477.706
486.022
521.491
571.941
625.373
664.951
695.231
693.443
576.915
535.426
552.425
823.919
1493.86
507.728
497.801
476.872
469.608
503.451
638.337
994.769
711.971
581.312
534.565
517.678
500.889
498.656
527.283
582.744
637.095
682.294
715.023
714.818
588.801
537.566
546.815
800.724
1504.15
531.723
522.542
498.806
472.873
449.383
462.501
611.863
1057.13
874.915
627.671
547.614
530.009
526.548
520.962
535.096
594.305
647.809
700.861
730.218
734.817
600.52
540.497
540.617
778.818
1512.28
575.575
547.584
526.393
491.806
442.518
422.395
446.819
598.929
1003.53
1101.92
779.723
564.471
533.71
546.337
546.39
555.14
598.593
666.793
713.992
745.489
752.371
614.187
542.958
536.611
754.023
1519.88
652.264
580.64
558.622
521.225
465.612
411.075
405.267
440.702
544.723
818.032
1118.59
950.62
602.696
539.222
553.658
566.782
570.383
609.548
679.998
728.018
760.505
769.264
627.901
546.942
531.52
730.992
1515.73
800.017
649.049
601.787
563.012
491.864
437.334
394.273
399.719
430.257
491.383
650.84
969.32
1086.58
789.229
565.152
557.805
585.897
590.913
618.06
684.374
741.927
773.933
783.757
645.06
551.858
528.531
705.968
1515.57
1012.55
758.253
644.855
613.277
532.781
458.755
400.82
386.885
389.114
414.266
466.142
548.823
778.447
1102.84
1045.39
703.083
577.184
593.341
604.658
633.392
698.856
752.92
786.444
799.58
662.178
559.199
524.612
683.292
1529.59
1064.12
949.534
738.852
672.399
589.043
499.238
424.317
383.534
378.736
379.282
403.877
436.329
486.015
626.843
952.921
1170.37
994.163
646.049
610.799
617.634
641.006
705.176
764.64
802.099
817.362
684.277
567.65
522.648
659.011
1536.4
978.334
1155.19
898.767
743.713
676.977
543.409
454.439
403.36
372.576
369.564
375.847
382.845
413.48
458.119
553.976
762.177
1108.55
1190.26
825.013
638.56
633.97
649.427
709.901
776.476
817.774
838.485
707.662
579.518
519.895
637.253
1541.39
1016.47
1112.66
1176.54
878.723
749.075
617.9
494.614
424.957
379.607
362.654
366.793
369.863
385.91
420.194
468.812
550.779
674.85
931.834
1230.36
1018.41
690.883
649.073
663.374
716.155
788.64
838.239
859.708
734.48
593.037
518.637
613.736
1543.61
1243.48
1002.92
1335.35
1145.01
843.195
723.411
544.341
456.997
402.937
366.895
362.697
362.841
381.395
413.217
462.657
528.631
574.259
645.135
786.887
1155.83
1158.74
758.442
675.912
675.713
717.923
804.216
856.607
882.849
761.153
610.579
517.053
593.518
1540.21
1406.9
1173.2
1115.69
1481.31
1048.01
800.901
620.047
494.316
432.902
369.068
361.585
359.595
367.713
409.688
490.826
534.752
572.921
585.162
617.004
694.463
999.096
1219.39
852.454
701.59
696.87
718.979
816.349
878.053
906.852
788.553
629.679
516.49
572.007
1539.71
1578.35
1430.56
1138.89
1464.71
1484.33
939.748
719.425
545.188
467.185
393.336
357.181
359.311
358.371
384.863
437.786
496.773
524.11
556.718
575.947
580.973
631.871
870.146
1223.88
951.801
738.567
716.068
725.863
835.525
900.985
933.295
814.154
650.036
515.867
554.214
1545.37
1806.31
1577.76
1401.73
1176.32
1886.82
1248.04
834.447
612.77
506.349
429.03
364.65
357.638
358.431
359.956
417.158
433.912
437.09
457.619
470.22
521.009
543.404
577.566
766.006
1213.9
1045.16
781.385
736.848
738.376
848.746
926.495
958.598
842.246
668.518
516.006
535.669
1542.36
2069.21
1815.08
1616.59
1352.53
1475.22
2010.92
1006.62
720.907
553.223
464.543
388.966
352.854
359.001
355.384
374.841
411.481
381.419
373.906
391.777
417.865
453.837
493.41
533.189
689.578
1181.68
1121.74
830.073
759.332
758.199
867.343
958.47
985.118
869.967
688.782
517.197
521.106
1537.62
2319.72
2122.95
1813.66
1638.58
1285.45
2282.61
1491.65
845.431
620.919
514.267
419.416
368.892
349.925
353.216
357.029
383.99
367.158
353.31
361.577
390.916
414.135
439.866
465.47
499.154
634.41
1140.28
1205.95
889.272
791.101
777.949
903.177
1001.16
1012.8
895.685
709.216
517.792
506.421
1535.39
2556.1
2408
2110.48
1832.7
1548.49
1491.02
2600.05
1066.65
738.145
566.633
455.538
398.763
348.987
347.64
352.724
356.418
365.736
344.871
356.709
373.954
406.713
425.365
442.765
462.156
485.984
588.726
1091.72
1307.77
980.641
829.271
802.772
941.725
1057.95
1052.89
917.377
730.584
519.501
495.012
1538.88
2757.88
2697.36
2404.76
2130.04
1744.03
1516.92
2817.77
1773.97
879.191
644.212
514.096
418.81
372.242
345.63
349.968
353.497
350.897
343.13
343.415
382.483
414.385
451.488
465.536
456.473
467.896
490.62
575.704
1009.24
1375.99
1095.38
882.957
845.752
1014.09
1123.29
1100.71
941.203
753.471
522.358
483.377
1528.01
2928.38
2972.71
2714.84
2436.23
2015.26
1720.91
1280.11
3080.43
1184.85
758.227
590.742
457.256
400.714
349.768
346.971
351.894
346.045
328.358
342.147
353.79
421.401
462.361
494.529
510.213
491.211
490.254
512.668
593.655
924
1387.64
1224.07
944.337
895.165
1084.04
1193.15
1163.87
966.39
775.412
526.815
473.589
1529.15
3052
3179.87
3046.21
2735.06
2349.77
1943.76
1761.97
3239.9
2092.12
936.946
676.424
532.622
417.616
373.664
346.5
352.413
344.259
324.485
323.773
347.42
382.706
434.229
495.337
520.663
541.754
548.612
572.939
573.525
640.002
863.754
1372.59
1351.94
1046.96
975.533
1163.48
1230.62
1224.2
998.452
797.691
531.611
464.303
1526.13
3077.18
3284.55
3296.67
3066.56
2664.2
2280.49
1851.81
1420.36
3302.53
1336.68
806.258
631.717
476.18
396.461
354.416
349.726
353.489
323.199
315.264
335.765
356.389
417.212
450.925
514.697
538.512
567.841
612.828
655.643
676.386
689.715
846.67
1314.2
1462.31
1171.17
1048
1229.84
1236.49
1241.46
1023.83
816.434
537.174
456.435
1515.94
3091.79
3320.74
3375.45
3379.05
3004.26
2588.3
2224.4
1837.04
3166.31
2520.95
1017.57
739.792
565.068
435.441
368.822
353.739
355.213
337.613
313.614
315.21
347.359
365.602
434.264
464.339
514.265
543.835
614.724
671.498
723.276
761.485
754.762
848.685
1196.7
1507.45
1327.71
1155.13
1284.59
1232.03
1243.07
1049.56
833.129
542.968
450.977
1506.91
3081.08
3332.45
3407.48
3524.81
3356.61
2956.73
2551.63
1970.85
1807.01
3822.56
1487.75
889.224
691.887
506.869
404.307
361.189
354.94
350.517
317.202
311.941
324.584
350.935
375.196
446.046
474.761
513.368
553.668
633.085
722.58
785.856
835.213
802.645
853.478
1076.5
1484.06
1465.57
1264.48
1292.15
1202.96
1240.42
1070.29
845.863
549.462
446.944
1497.07
3060.93
3304.9
3407.92
3538.63
3585.5
3327.61
2932.06
2478.63
1939.2
3209.37
2774.3
1136.5
828.61
621.159
463.639
375.004
360.221
361.094
334.815
310.843
309.866
332.552
350.665
389.171
453.339
477.139
524.721
582.687
646.2
780.484
849.231
884.818
855.367
868.668
1027.8
1409.27
1586.9
1373.19
1276.72
1193.91
1248.97
1087.88
856.916
556.592
444.219
1488.4
3152.41
3301.49
3388.94
3540.94
3650.03
3621.4
3330.29
2836.79
2289.45
1933.73
4038.68
1626.84
1005.53
777.465
559.627
419.948
369.145
363.244
352.576
313.222
307.17
310.843
334.718
351.441
408.956
456.47
488.823
533.855
612.772
676.924
812.502
882.918
911.481
927.838
899.741
1014.3
1310.61
1667.6
1489.79
1256.42
1186.07
1239.17
1099.29
864.942
564.291
440.837
1477.39
3523.76
3366.28
3405.23
3547.42
3645.15
3759.74
3635.49
3331.07
2715.76
2019.9
3642.4
2759.05
1274.78
951.086
723.727
497.409
383.103
365.967
370.203
330.431
308.55
307.194
312.296
335.369
353.846
428.966
456.033
509.787
546.223
647.249
739.061
813.951
880.328
954.628
989.319
956.85
1023.67
1229.72
1717.76
1603.68
1253.82
1165.68
1258.8
1110.69
872.762
572.241
438.459
1468.83
4133.74
3667.33
3483.16
3521.04
3625.73
3783.03
3807.24
3694.13
3168.93
2825
2323.49
3836.91
1734.28
1165.43
917.024
654.697
443.048
371.586
368.755
355.038
312.692
305.011
304.45
312.031
335.883
361.558
440.766
459.037
526.517
561.448
691.413
782.447
808.202
856.176
981.064
1060.39
1063.25
1030.47
1209.69
1738.56
1695.95
1246.43
1146
1265.6
1116.5
880.65
580.423
436.091
1458.2
4460.03
4225.49
3872.6
3620.9
3600.58
3771.57
3852.53
3950.19
3630.44
3142.96
2259.01
3924.19
2479.23
1449.48
1110.98
885.388
570.222
388.123
372.118
375.025
333.418
305.721
302.97
302.885
309.676
338.177
380.138
445.71
464.978
538.975
584.993
715.965
781.406
779.177
830.706
980.571
1135.11
1131.5
1068.25
1199.78
1749.78
1782.69
1226.35
1160.94
1285.3
1110.5
889.264
588.827
433.565
1449.81
4262.61
4715.86
4498.83
4020.75
3676.68
3710.64
3855.24
4039.83
3994.89
3605.11
2622.49
2875.79
3727.85
1856.86
1313.46
1101.3
819.807
489.439
372.469
374.794
358.094
315.01
303.722
299.775
298.635
309.324
345.7
397.225
450.666
470.013
553.558
648.162
719.243
749.757
770.25
835.336
979.682
1161.66
1187.84
1111.48
1204.03
1757.54
1859.31
1203.71
1175.41
1308.69
1124.21
899.558
597.434
433.643
1439.12
3574.01
4632.85
4868.09
4672.51
4107.2
3658.03
3827.35
4044.32
4186.03
4007.96
3783.88
2421.51
4308.23
2396.52
1610.91
1282.68
1089.92
712.258
405.292
369.801
366.475
348.626
305.767
300.657
293.27
297.054
313.779
356.583
415.559
449.716
494.739
567.144
683.343
701.332
702.614
780.994
873.234
999.088
1164.08
1212.22
1153.17
1217.84
1772.26
1935.06
1209.57
1192.73
1331.16
1114.09
911.025
606.493
433.691
1430.32
3217.05
4137.52
4790.73
5041.01
4782.67
3880.62
3708.84
4026.42
4232.92
4333.08
4166.26
2629.47
3901.79
3231.25
2053.18
1507.64
1257.97
1045.49
557.948
376.803
368.555
363.485
329.661
301.979
293.902
285.07
300.301
319.752
373.053
425.969
449.725
529.95
590.393
678.915
662.457
688.474
830.418
963.03
1044
1146.36
1242.25
1188.06
1242.96
1796.49
2000.19
1234.71
1225.04
1350.39
1111.41
923.018
615.506
433.705
1419.63
3243.89
3669.66
4351.32
4960.92
5230.37
4530.76
3720.07
3883.74
4229.12
4468.57
4531.96
2954.06
3271.6
3432.45
2540.13
1888.15
1460.93
1255.21
903.351
429.026
367.431
364.043
357.551
319.469
294.738
284.509
281.627
305.049
329.066
392.021
430.444
456.662
553.595
603.392
641.572
648.872
706.321
903.742
1039.06
1075.25
1141.32
1239.91
1210.47
1272.64
1827.77
2079.2
1234.08
1267.84
1360.25
1108.07
933.323
625.169
433.175
1409.36
3502.6
3671.99
3855.17
4592.5
5268.49
5231.03
4057.08
3739.74
4131.85
4511.59
4902.4
3972.16
3014.72
3803.36
2881.45
2435.26
1856.69
1443.86
1231.04
657.873
381.928
365.522
362.889
352.18
308.12
284.903
275.251
284.642
310.608
344.478
406.271
430.719
482.39
560.781
605.008
604.094
659.479
783.416
956.316
1070.83
1092.89
1141.22
1242.45
1228.5
1302.93
1865.75
2148.49
1275.57
1359.47
1362.87
1125.71
940.43
634.758
433.293
1396.38
3639.64
3938.69
3841.99
4145.33
4977.77
5384.75
4791.51
3824.24
3866.39
4477.01
5021.08
6086.11
3074.17
3853.27
3214.08
2806.67
2372.1
1823.2
1430.82
1065.11
461.387
368.357
366.285
366.165
333.816
296.019
274.964
270.509
292.462
318.554
363.808
412.447
433.044
507.668
563.115
583.996
586.155
700.117
876.02
980.841
1086.83
1101.74
1146.99
1244.2
1242.27
1330.49
1900.69
2232.83
1310.47
1609.7
1382.48
1133.54
937.159
643.738
432.762
1384.22
3705.32
4091.94
4106.6
4102.74
4466.34
5403.12
5435.07
4234.07
3723.34
4261.8
5061.82
5947.75
3739.56
3684.09
3428.93
3431.42
2886.5
2409.26
1802.14
1364.52
750.65
388.028
365.499
366.778
357.171
319.215
279.917
267.832
269.026
302.873
327.569
379.727
413.733
445.014
517.152
557.729
557.577
597.032
746.821
938.157
999.553
1072.42
1125.66
1164.15
1256.1
1262.07
1358.72
1942.94
2311.64
1381.36
2066.85
1454.9
1151.05
945.689
648.402
433.458
1370.81
3791.04
4162.52
4246.11
4335.73
4380.53
4982.4
5536.45
5051.49
3860.47
3882.22
4846.32
5941.5
4389.26
3437.85
3759
3877.44
3466.71
3060.39
2423.95
1670.03
1144.07
485.725
369.017
368.964
380.332
341.493
298.114
268.584
261.788
274.04
309.057
345.522
386.467
413.505
468.056
519.486
541.179
544.609
651.54
797.262
967.164
1009.89
1057.16
1123.93
1203.54
1264.95
1285.23
1381.74
1979.6
2404.83
1528.81
2646.25
1570.61
1183.85
939.656
646.673
433.474
1360.34
3891.61
4213.88
4248.26
4604.63
4600.07
4682.31
5530.29
5589.12
4232.94
3732.03
4443.05
6279.38
5153.69
3386.83
3765.92
3782.78
4999.31
4393.46
3173.03
2123.7
1460.08
786.296
389.806
366.959
383.65
389.192
321.703
276.695
261.034
259.281
288.556
318.184
359.912
388.475
422.065
477.737
511.233
518.132
542.737
713.077
841.145
981.812
1020.4
1055.75
1115.8
1237.57
1297.13
1308.9
1405.07
2020.35
2502.55
1667.47
2959.5
1704.37
1185.64
941.3
652.667
431.728
1350.8
3934.44
4325.55
4281.24
4720.27
4843.4
4785.9
5201.86
5697.78
5053.39
3829.72
3951.13
5709.3
8469.98
3539.96
3511.58
3941.11
4697.35
6307.98
4743.39
2657.39
1878.5
1161.74
496.605
367.004
372.627
408.88
362.454
290.842
265.791
253.742
260.183
303.218
330.108
365.161
388.144
436.106
481.38
494.063
505.456
561.295
750.247
886.376
976.831
1031.77
1058.99
1115.36
1253.92
1321.67
1332.06
1425.39
2063.61
2593.15
1903.13
2883.59
1868.96
1181.84
940.499
649.631
433.598
1345.14
4029.21
4484.2
4467.26
4827.91
4936.1
5078.55
5005.77
5725.46
5665.21
4120.82
3750.48
5017.18
8058.75
4177.34
3300.9
3886.05
4528.11
5373.25
6469.6
3746.23
2313.24
1503.91
802.418
389.197
366.077
402.879
417.621
322.778
276.453
252.124
251.583
266.61
316.196
336.332
367.265
388.438
446.65
472.079
477.708
499.815
611.196
781.877
924.107
972.24
1037.75
1071.37
1130.19
1273.98
1352.47
1358.24
1445.49
2110.32
2687.8
2145.08
2440.88
1976.37
1189.88
944.031
650.206
436.438
1338.2
4113.09
4625.88
4652.05
4963.99
5032.49
5292.19
5139.24
5533.82
5795.55
4789.46
3736.39
4233.98
7154.66
5338.73
3368.45
3430.29
4469.37
4347.59
6505.66
6581.22
2760.81
1903.43
1222.44
485.201
365.626
374.781
436.183
379.953
296.578
258.289
245.981
251.783
279.857
323.983
338.522
367.303
394.202
451.918
454.287
466.733
501.192
667.827
813.168
943.621
977.539
1045.7
1102.17
1166.56
1314.57
1379.73
1379.06
1473.8
2164.77
2775.57
2359.66
2326.98
2040.55
1214.44
940.571
649.792
439.472
1332.49
4183.07
4785.06
4793.11
5125.72
5198.4
5390.52
5473.85
5369.93
5789.83
5527.89
3923.78
3803.16
6991.47
6766.54
3652.38
3339.12
3877.36
4757.34
4680.24
8413.53
4125.28
2255.89
1640.19
746.159
386.634
365.902
418.354
441.72
327.287
279.844
246.472
242.84
255.48
296.069
327.123
337.818
366.158
407.609
443.768
439.946
460.524
514.221
720.088
844.9
952.322
986.489
1047.05
1150.97
1250.01
1366.35
1425.44
1412.64
1509.84
2229.63
2859.22
2531.53
2421.86
2140.8
1230.1
939.151
650.581
440.687
1330.53
4307.31
4931.02
4968.73
5287.72
5376.63
5505.1
5708.36
5485.6
5798.41
5780.95
4262.2
3688.09
5075.94
11063.8
4329.42
3450.43
3340.29
4222.82
4839.17
6322.89
8118.52
2885.83
2013.25
1178.49
471.67
368.181
376.038
454.213
408.898
302.886
263.693
236.853
244.976
262.539
305.166
327.13
332.171
368.07
414.67
429.263
423.864
458.543
543.338
763.468
869.037
962.223
1008.72
1066.89
1231.74
1353.04
1439.76
1467.49
1454.04
1556.67
2305.48
2948.88
2691.1
2429.05
2187.81
1256.54
935.817
646.422
441.533
1331.01
4385.98
5017.41
5138
5462.82
5552.89
5701.26
5953.01
5818.25
5726.26
5896.17
4970.2
3679.77
4092
9588.1
4978.3
3833.92
3384.66
3278.6
3968.96
4855.06
11218.6
4724.27
2402.07
1609.85
675.79
394.352
370.589
414.628
459.407
354.125
285.008
241.403
234.011
249.095
266.778
312.127
318.668
330.808
380.674
415.473
411.202
412.203
472.506
582.242
792.34
893.923
965.032
1038.02
1121.91
1332.86
1447.22
1512.58
1510.43
1500.48
1615.29
2388.66
3034.92
2851.73
2415.41
2254.4
1293.46
945.209
649.874
440.595
1332.16
4399.92
5145.26
5230.67
5643.39
5753.39
5925.51
6275.81
6128.09
5877.34
5934.97
5519.54
3835.29
3732.69
7176.48
9294.51
4804.97
3608.15
3237.45
3005.31
4125.74
6055.05
9803.17
3499.45
2066.17
1018.36
476.924
379.41
378.526
455.906
442.628
326.614
256.719
232.467
233.565
250.216
276.965
313.815
310.148
336.231
387.8
397.244
398.487
403.653
493.272
633.028
818.099
917.663
976.39
1084.55
1201.26
1424.85
1532.38
1583.74
1556.19
1558.3
1689.2
2493.04
3117.18
3033.65
2476.91
2318.86
1311.67
942.817
643.157
439.563
1331.39
4426.02
5291.83
5384.02
5837.28
5990.31
6214.53
6677.64
6483.59
6220.39
6071.44
5727.44
4006.94
3629.44
4815.07
11806.7
8360.29
4347.19
3426.38
2912.36
3033.6
4036.43
12852.5
6699.9
2805.21
1306.94
632.522
417.558
377.23
396.919
468.38
414.609
292.148
235.459
228.408
236.266
250.206
287.453
304.388
304.395
348.875
390.665
387.97
382.142
401.938
529.175
670.356
843.668
933.501
1001.25
1148.47
1296.45
1503.41
1608.34
1653.97
1627.5
1645.12
1781.96
2592.9
3214.99
3152.64
2450.74
2330.53
1337.58
936.897
641.504
433.176
1329.11
4445.4
5449.9
5579.06
6040.08
6278.4
6595.07
7141.95
7012.51
6542.42
6330.61
5817.14
4141.16
3608.22
4103.94
7724.96
10047.4
8865.14
3854.58
3108.72
2691.7
3233.42
5507.25
11762
4533.18
1672.52
794.677
518.695
395.466
381.3
439.366
469.455
381.145
246.32
227.96
226.356
237.621
253.32
291.792
295.515
302.119
359.931
376.811
373.906
372.811
406.811
574.308
704.14
868.338
950.929
1043.63
1214.89
1396.98
1584.38
1681.6
1732.01
1711.53
1743.51
1887.65
2723.48
3304.72
3268.47
2368.23
2320.33
1359.54
939.226
643.652
430.595
1316.01
4433
5506.74
5782.5
6301.87
6637.68
7086.03
7703.17
7671.98
6987.72
6580.01
5876.33
4294.43
3675.16
3783
5871.45
8830.94
10215.8
7857.7
3318.22
2726.34
2864.92
3930.79
9899.22
8074.26
2456.29
879.498
663.485
459.153
388.834
395.245
469.804
473.619
304.641
229.484
223.356
225.249
236.423
260.49
291.981
285.215
305.807
364.966
370.645
360.105
368.475
418.677
624.159
729.873
892.52
971.57
1099.05
1283.79
1506.76
1677.01
1759.99
1820.28
1841.49
1864.54
2023.28
2850.19
3413.3
3260.08
2303.3
2312.86
1374.12
946.932
638.748
424.221
1312.33
4446.39
5606.7
6043.6
6620.89
7100.29
7690.43
8434.48
8469.86
7692.34
6891.96
6039.15
4204.58
3704.59
3669.74
4728.6
7389.84
8460.74
9920.64
5507.3
2885.15
2653.35
3099.58
4013.54
9728.13
3944.73
1034.97
725.673
604.194
411.724
389.969
416.766
494.226
433.824
250.756
222.289
219.84
225.318
234.871
268.64
279.773
281.713
324.508
358.068
356.153
349.776
367.331
441.291
665.71
758.28
917.225
1002.9
1154.4
1372.77
1615.95
1759.51
1841.68
1925.53
1996.57
2033.95
2161.39
3003.58
3519.49
3224.09
2281.48
2334.1
1399.03
939.534
636
414.091
1309.01
4447.48
5644.56
6213.03
7012.78
7705.12
8474.6
9357.15
9395.64
8500.53
7274.78
6207.18
4195.44
3765.68
3648.23
4213.53
6293.67
8066.52
9084.42
8618.6
3762.3
2552.52
2734.07
3684.92
6534.76
6502.36
1377.39
760.132
688.233
480.643
402.178
401.121
462.479
505.494
321.318
229.535
218.337
216.773
224.801
234.824
272.639
271.2
281.556
334.43
354.856
343.153
342.475
370.951
478.439
699.87
786.748
946.408
1042.8
1206.26
1491.22
1719.78
1852.04
1953.07
2059.08
2171.96
2226.98
2330.28
3167.97
3617.68
3165.04
2340.03
2318.95
1414.45
938.247
630.62
399.406
1303.63
4463.17
5744.18
6448.42
7498.34
8484.07
9458.28
10453.9
10450.4
9340.79
7705.05
6139.6
4359.91
3843.81
3642.08
3941.5
5204.2
7490.31
8284.29
10254.4
5359.28
2956.96
2489.14
3190.44
4796.6
7345.63
1969.61
823.867
721.155
618.743
429.84
398.763
414.67
515.192
465.51
259.299
219.649
214.141
215.068
219.758
241.944
267.061
265.026
285.001
339.683
340.366
335.343
338.134
379.981
522.965
731.974
813.749
981.819
1085.23
1268.32
1620.08
1821.8
1955.96
2075.44
2224.38
2349.32
2415.32
2501.11
3347.03
3699.57
3094.18
2344.15
2313.66
1422.09
933.557
624.897
381.868
1305.56
4465.39
5758.24
6618.8
8105.07
9455.51
10671.5
11677.1
11532.1
10222.1
8116.28
6145.06
4420.28
3888.94
3733.78
3819.3
4762.01
6640.82
7705.29
8198.21
7227.74
4358.08
2564.68
2822.26
4756.58
7332.98
2848.9
972.06
738.665
677.963
502.411
416.201
406.414
457.695
524.724
354.368
229.948
214.808
211.145
210.509
218.894
247.736
257.732
264.358
298.894
336.361
333.365
322.011
338.476
396.914
564.805
761.418
841.993
1019.75
1128.83
1355.77
1746.75
1932.75
2088.55
2238.1
2390.34
2530.18
2617.02
2688.47
3531.07
3771.46
3054.21
2361.87
2308.98
1444.15
938.41
624.799
361.294
1311.32
4471.89
5750.21
6828.49
8828.1
10627.4
12054.3
12928.4
12587.6
10915.5
8312.66
6300.92
4657.42
3967.41
3771.87
3792.15
4350.94
5912.89
7545.39
5813.67
9360.3
6575.43
2907.11
2702.4
4430.41
7186.25
3659.62
1282.99
804.103
703.146
599.301
457.105
414.362
423.815
522.766
490.144
270.824
216.654
210.325
207.348
204.941
221.713
249.449
254.944
263.486
308.197
332.059
321.08
313.658
345.227
417.861
610.164
788.944
871.795
1061
1172.03
1470.76
1867.93
2057.33
2232.37
2402.6
2574.11
2726.85
2798.49
2898.95
3715.03
3819.4
2997.01
2385.07
2278.33
1446.13
931.895
616.836
340.618
1311.93
4439.35
5742.53
7035.16
9692.35
11976.6
13504.1
14078.7
13460.5
10850.5
8123.49
6280.98
4810.16
4050.38
3837.09
3832.52
4201.94
5228.69
7516.37
6592.11
8451.04
8158.2
4249.45
2781.63
4382.11
7346.19
4075.2
1879.49
1038.38
736.593
640.025
531.065
439.233
417.695
466.568
536.727
402.865
231.629
210.628
205.916
200.475
202.93
229.33
245.292
252.661
265.036
318.013
323.017
310.166
308.283
357.433
444.791
652.706
816.05
905.112
1098.65
1224
1605.11
1989.44
2172.19
2376.9
2590.69
2804.02
2907.42
2971.83
3096.61
3892.76
3852.67
2935.47
2425.59
2268.33
1441.81
930.783
619.731
316.665
1313.53
4451.23
5702.71
7248.4
10663.8
13402.1
14782.2
15045
13768.6
10803.6
8443.32
6297.1
5058.29
4162.29
3912.89
3859.05
4156.55
4922.59
7035.27
7772.1
6035.34
8078.68
6557.55
3026.8
4103.88
6855.52
4742.5
2842.88
1633.29
934.635
678.293
574.72
494.776
432.265
437.684
521.457
510.056
297.193
213.308
205.687
199.042
195.883
202.583
234.114
243.489
251.436
270.652
321.133
310.589
299.555
306.533
372.361
475.702
696.116
842.717
941.443
1138.07
1286.47
1748.64
2111.99
2298.03
2549.92
2830.67
3044.92
3056.7
3121.25
3319.22
4050.43
3867.05
2889.31
2507
2312.39
1445.98
936.858
621.923
291.859
1313.37
4344.82
5531.92
7408.14
11711.6
14679.5
15542
15343.2
13794.5
11418.6
8234.47
6236.68
5026.1
4304.76
4004.73
3936.12
4154.27
4704.94
6210.51
8007.82
7104.82
7617.98
7638.95
3454.62
3757.61
7003.24
5594.9
4276.57
2803.07
1527.34
823.615
595.751
547.893
461.902
434.582
462.065
541.31
460.8
246.006
204.724
199.703
193.298
192.613
202.99
237.19
241.408
251.242
281.823
311.838
300.676
289.217
308.465
391.767
512.319
737.437
869.382
979.51
1179.88
1367.67
1882.72
2228.93
2395.65
2809.52
3105.25
3324.59
3234.06
3271.74
3540.26
4181.46
3893.64
2854.16
2593.63
2359.11
1491.27
926.134
610.23
269.682
1313.84
4229.44
5226.4
7564.48
12630.1
15589
15730.6
15264.1
13674.8
11217.5
8660.76
6523.03
5171.95
4464.1
4116.89
4016.1
4164.5
4653.92
5668.02
7878.29
8152.96
8292.99
8345.21
4327.29
3762.84
6799.63
6767.13
6141.28
4590.14
2787.94
1290.59
653.967
569.269
529.972
445.092
439.961
505.633
542.795
333.038
216.789
200.234
192.861
187.185
192.04
207.889
237.457
240.17
252.348
289.082
306.273
288.79
283.393
322.673
408.332
551.362
778.558
894.617
1020.27
1226.93
1474.47
2006.15
2342.49
2542.51
3102.95
3463.92
3746.62
3500.74
3466.46
3782.14
4291.83
3886.32
2896.38
2670.99
2388.24
1494.78
918.107
581.732
249.306
1312.38
3979.01
4928.92
7626.86
13292.4
15695.6
16009.4
15525.4
13809.4
11236.6
8625.65
6515.67
5110.09
4583.37
4248.53
4118.42
4234.57
4642.99
5390.87
7400.57
8349.58
8524.48
9112.12
5280.59
3961.13
6488.78
6836.55
8106.31
7209.69
5213.21
2303.52
869.778
594.652
558.459
497.408
439.107
448.339
552.746
495.536
273.503
202.325
194.059
185.823
183.658
192.154
212.449
237.154
239.993
258.033
292.103
292.379
279.332
279.744
337.385
433.861
593.869
816.517
920.462
1064.39
1280.67
1594.82
2131.24
2423.75
2827.91
3448.97
3973.24
4266.14
3846.84
3689.38
4033.46
4378.47
3876.02
2927.59
2751.32
2426.44
1481.25
916.548
547.892
231.869
1307.99
3754.53
4720.98
7471.28
13569.6
15608.1
15881.3
15372.7
14164.2
11198.5
8549.11
6459.58
5166.34
4630.97
4396.85
4235.15
4293.11
4663.74
5267.75
6769.74
8327.59
8732.37
10072.8
6403.65
4233.7
6188.85
6734.77
7821.86
8755.9
7676.68
4204.84
1421.79
685.531
573.79
552.236
452.993
437.792
483.356
557.064
401.732
224.348
195.948
187.229
180.409
182.469
191.233
215.43
231.758
238.536
265.295
286.507
284.16
267.564
280.511
357.3
457.157
639.131
851.036
946.605
1113.82
1343.99
1719.98
2251.79
2535.51
3196.56
4036.63
4519
4831.39
4241.58
3955.86
4310.74
4447.19
3866.3
2967.27
2827.34
2447.36
1502.27
913.571
508.512
215.781
1286.89
3612.33
4536.43
7168.47
13535.3
15945.9
15892.9
15550.4
13862.4
11254.4
8509.58
6449.33
5175.09
4641.15
4522.88
4374.44
4368.59
4721.77
5262.4
6346.27
8181.51
8869.58
10453.2
7457.47
4498.26
6031.5
6429.56
7011.23
6371.25
8425.03
7646.11
2478.41
964.783
606.794
569.774
527.806
439.655
440.443
548.074
526.146
309.942
203.097
190.097
179.976
174.768
181.937
192.352
219.581
232.362
240.507
270.43
283.824
269.244
261.495
287.926
372.124
491.281
683.593
883.703
974.921
1167.23
1413.62
1847.45
2355.91
2691.68
3635.95
4531.55
5152.54
5318.9
4688.24
4290.09
4573.69
4485.93
3841.76
3014.91
2894.06
2485.48
1488.64
897.907
472.241
203.873
1280.66
3503.87
4282.31
6814.91
13454.7
15734.1
16021
15248.7
13504.9
11270.3
8541.55
6694.55
5305.09
4647.29
4562.71
4493.44
4481.75
4825.1
5267.09
6160.46
7771.34
8977.92
10640.2
8456.79
4801.66
5963.53
6282.05
4204.24
3868.58
5200.01
9253.35
4481.15
1644.62
694.468
589.392
568.909
467.422
436.596
467.901
564.405
478.299
244.489
192.89
182.595
175.028
170.085
183.278
194.728
222.018
229.962
239.953
274.24
273.309
261.937
256.315
308.372
389.291
525.235
728.586
911.804
1008.41
1227.1
1489.45
1977.74
2459.02
2907.89
4144.49
5178.95
5741.6
5664.18
5108.79
4691.29
4864.38
4529.34
3813.43
3126.89
2979.3
2519.95
1488.29
886.323
453.222
198.112
1274.08
3483.97
3988.07
6338.36
13389.5
15319.5
15811
15088.2
13398.1
11013
8326.6
6555.96
5247.96
4635.76
4596.12
4553.2
4595.32
4926.48
5370.23
6116.37
7460.81
9003.42
10887
9255.42
5040.57
5784.57
6146.75
3981.43
3818.15
3176.06
7955.55
7782.38
2874.16
902.856
628.185
584.512
542.864
440.752
436.882
528.608
553.22
355.021
215.61
184.607
177.379
167.699
168.571
185.881
196.203
225.38
231.463
242.086
276.632
261.802
250.171
255.062
325.753
410.779
564.693
771.173
940.697
1040.77
1293.01
1570.33
2105.36
2567.4
3213.59
4595.54
5848.67
6051.61
5867.98
5436.37
5098.79
5147.47
4544.87
3816.05
3256.65
3043.13
2540.76
1487.6
870.541
434.619
194.508
1275.74
3556.01
3748.27
5772.66
12654.4
14964.7
15261.5
15040.2
13641.4
10808.3
8173.78
6672.12
5317.94
4694.54
4563.96
4591.06
4738.71
5024.26
5569.64
6117.3
7257.56
8928.68
11037.3
9455.67
5451.37
5626.82
6031.02
4299.79
4122.67
3178.55
3634.58
8674.36
4971.65
1323.9
731.492
602.894
571.896
475.896
438.057
448.635
567.848
522.033
285.073
194.659
180.85
170.336
163.307
168.93
185.808
199.465
223.089
230.345
245.938
263.908
253.492
242.145
255.122
346.906
433.176
604.827
812.008
967.118
1076.97
1360.99
1658.26
2228.1
2696
3552.87
5098.46
6174.01
6119.19
5887.19
5623.17
5452.7
5425.12
4546.74
3819.32
3461.82
3135.03
2569.94
1482.52
828.796
428.024
192.272
1272.39
3709.83
3621.35
5235.41
11423
14613.2
14702
13914.9
12920.9
10848.3
8137.85
6473.5
5166.75
4663.52
4601.91
4577.37
4800.33
5119.07
5718.49
6130.39
7202.52
8822.01
11151.9
9769.07
5864.06
5480.57
5992.24
4276.52
4162.72
3395.38
3030.55
6136.52
7111.09
2130.01
940.504
668.365
586.615
529.521
452.272
436.699
482.288
575.756
433.601
239.006
185.677
176.851
162.895
162.942
170.2
187.741
202.796
223.172
230.363
252.436
257.981
240.585
237.92
262.611
365.066
461.146
646.011
851.593
994.421
1114.44
1429.41
1752.24
2348.24
2863.34
3931.32
5567.48
6224.68
6114.26
5832.76
5687.18
5728.38
5647.92
4545.28
3864.98
3662.42
3203.69
2600.23
1501.44
809.792
428.481
194.256
1272.68
3857.93
3558.51
4778.8
9800.22
13245.3
14086.1
12600.1
11334
9713.21
7597.24
6234.52
5120.41
4687.43
4575.99
4573.99
4806.53
5215.1
5888.67
6282.92
7208.97
8770.42
11202.3
10761.8
6301.12
5408.2
5909.09
4459.8
4172.03
3476.58
3240.18
3724.99
7280.65
3773.27
1265.59
828.1
635.83
553.286