/*--------------------------------*- C++ -*----------------------------------*\
| =========                 |                                                 |
| \\      /  F ield         | OpenFOAM: The Open Source CFD Toolbox           |
|  \\    /   O peration     | Version:  2212                                  |
|   \\  /    A nd           | Website:  www.openfoam.com                      |
|    \\/     M anipulation  |                                                 |
\*---------------------------------------------------------------------------*/
FoamFile
{
    version     2.0;
    format      ascii;
    arch        "LSB;label=32;scalar=64";
    class       volScalarField;
    location    "100";
    object      p;
}
// * * * * * * * * * * * * * * * * * * * * * * * * * * * * * * * * * * * * * //

dimensions      [0 2 -2 0 0 0 0];

internalField   nonuniform List<scalar> 
165000
(
-390.579
-299.658
-1016.43
-374.755
-829.625
-1810.72
-441.354
-981.552
-1507.84
-2663.28
-574.914
-1120.44
-1848.39
-2258.55
-3573.42
-647.36
-1474.88
-2079.17
-2792.22
-3072.5
-4527.47
-696.696
-1719.7
-2602.95
-3096.24
-3802.76
-3944.99
-5538.59
-647.54
-1973.41
-2932.96
-3784.12
-4187.07
-4861.12
-4882.23
-6598.72
-619.564
-1904.96
-3294.94
-4153.75
-5049.26
-5313.98
-5986.79
-5881.22
-7718.93
-321.837
-1745.17
-3111.65
-4598.44
-5450.89
-6330.19
-6502.47
-7159.39
-6948.71
-8891.51
-157.694
-1299.13
-2952.32
-4458.61
-5961.82
-6759.92
-7692.67
-7733.01
-8403.96
-8080.31
-10126.1
-15.1345
-1024.55
-2360.31
-4161.69
-5788.35
-7357.94
-8133.53
-9064.51
-9017.55
-9694.37
-9282.28
-11419.2
131.91
-575.161
-1679.3
-3294.6
-5294.37
-7052.96
-8809.91
-9517.6
-10509.1
-10346.9
-11057.8
-10552.6
-12775.5
-62.8385
97.5098
-814.964
-2302.41
-4237.28
-6442.59
-8352.73
-10241.1
-10942.8
-11972
-11725
-12470.4
-11893.7
-14192
111.537
174.639
413.603
-1166.58
-2987.25
-5179.89
-7581.67
-9660.29
-11762.9
-12381.1
-13489.9
-13149.4
-13955.1
-13302.1
-15673.9
961.102
1472.08
1056.02
541.67
-1492.88
-3665.82
-6143.11
-8716.51
-10932.4
-13324.7
-13854.3
-15020.1
-14620.9
-15490.8
-14781.7
-17219.2
1849.96
3115.23
2820.72
1863.5
542.695
-1785.71
-4326.98
-7096.61
-9847.02
-12238.6
-14824.6
-15324.3
-16599.6
-16134.5
-17098.4
-16327.3
-18831.5
1997.13
4230.97
5075.16
3856.67
2412.64
570.787
-2108.5
-5002.3
-8024.75
-10967.6
-13545.4
-16263
-16850.6
-18189.2
-17693.9
-18760.3
-17943.3
-20508.6
1634.24
4954.54
6344.62
6333.14
4710.24
2737.9
580.483
-2486.34
-5675.23
-8965.26
-12108.9
-14870.9
-17684.8
-18404.5
-19831.2
-19292
-20492.5
-19621
-22255.4
1005.95
4493.06
7753.93
7837.97
7361.14
5413.96
2915.59
463.041
-2847.51
-6379.39
-9896.29
-13274.7
-16206.3
-19136.2
-19973.5
-21505.3
-20941.6
-22280.8
-21368
-24067.3
560.203
3100.78
7000.58
9355.21
9120.99
8057.3
5791.66
2975.22
311.53
-3263.66
-7097.97
-10830.3
-14395.9
-17526.1
-20581
-21502.6
-23212.7
-22623.8
-24137.3
-23171.4
-25953.4
270.863
1808.63
5056.36
8645.98
10420.4
9989.35
8295.84
5872.72
2954.45
71.929
-3674.66
-7821.47
-11789.8
-15553.3
-18892
-22038.5
-23066.7
-24951.3
-24365.2
-26049.1
-25044.3
-27903.8
157.314
976.712
3143.77
6404.56
9568.37
10681
10196.5
8384.11
5844.98
2789.77
-216.252
-4113.29
-8561.32
-12739.2
-16727.2
-20249.8
-23517.3
-24702.5
-26747.1
-26132.7
-28024.7
-26972.8
-29927.7
46.6376
610.713
1864.04
4178.54
7298.02
9711.53
10777.7
10161
8313.89
5663.64
2569.84
-575.877
-4565.12
-9308.49
-13735.7
-17961.5
-21650
-25024.7
-26424
-28579.6
-27963.2
-30046.3
-28975.5
-32010.6
-2.89685
310.915
1139.05
2605.35
4913.85
7597.9
9695.1
10676.9
9981.4
8066.48
5332.63
2253.41
-956.749
-5048.64
-10085.9
-14728.7
-19213.7
-23088.9
-26573.5
-28092.4
-30454.6
-29824.3
-32121.7
-31030.2
-34169.2
-22.9541
141.058
665.014
1568.47
3149
5315.09
7578.84
9461.57
10280.2
9502.35
7671.71
4924.88
1732.2
-1352.54
-5539.34
-10868.8
-15811.8
-20536.7
-24526.5
-28131.6
-29671.3
-32331.5
-31753
-34242.1
-33162.8
-36381.1
-57.0308
15.8421
350.087
894.07
1914.5
3420.32
5444.96
7308.9
8970.18
9646.77
8898.7
7079.96
4429.37
1147.5
-1819.54
-6052.28
-11674
-16888.7
-21891.6
-25977.2
-29726.6
-31207.6
-34220.4
-33711.5
-36416.8
-35344.2
-38666.9
-131.481
3.65809
129.978
419.211
1084.53
2033.69
3538.53
5332.01
6834.93
8225.8
8830.56
8153.22
6344.41
3724.11
594.243
-2353.74
-6561.25
-12509.3
-18033.8
-23263.5
-27430.5
-31332.9
-32865.4
-36144.8
-35742.7
-38636.4
-37602.7
-41000.9
-127.559
24.1347
-9.30126
154.446
455.695
1038.98
2083.29
3467.83
4995.73
6202.93
7310.69
7880.88
7236.18
5517.01
2795.58
-91.0706
-2903.1
-7114.58
-13357.3
-19172.4
-24669.8
-28852.3
-32963.7
-34708.1
-38100.4
-37807.3
-40909.1
-39907.5
-43407
-31.5867
112.227
-8.47909
-36.3036
26.863
356.714
938.442
1997.65
3242.69
4495.43
5443.57
6308.78
6791.16
6190.46
4494.31
1874.63
-973.144
-3540.07
-7675.97
-14255
-20385.4
-26050.7
-30288.3
-34592.5
-36611.9
-40093.7
-39945.6
-43228.3
-42289.5
-45854.3
-13.368
186.477
15.7505
-95.3566
-163.433
-170.974
127.985
836.392
1746.67
2891.63
3862.03
4585.14
5260.11
5597.85
5041.96
3315.91
881.152
-1899.33
-4294.24
-8333.95
-15173.9
-21606.2
-27449.7
-31759
-36193.1
-38441.8
-42122.5
-42120.2
-45600.4
-44712.7
-48371.4
-29.4121
117.731
73.4009
-72.9079
-323.653
-467.926
-437.545
-100.523
617.161
1387.61
2404.1
3144.8
3698.94
4237.32
4356.35
3778.77
2031.31
-265.977
-2862.49
-5181.99
-9093.51
-16201.2
-22862.6
-28827.3
-33257.2
-37738
-40459.3
-44228.1
-44366.1
-48019.2
-47212.9
-50925
-47.3008
-33.8686
165.27
18.1773
-305.379
-517.681
-919.884
-764.837
-401.754
242.425
962.786
1805.81
2399.28
2801.56
3187.5
3058.29
2294.78
623.883
-1605.12
-3937.46
-6179.74
-10046.3
-17259
-24179.6
-30230.7
-34785.3
-39266.1
-42605.2
-46404.7
-46654.7
-50491.5
-49752.3
-53543.3
-99.9988
-69.1855
-62.499
96.7632
-197.571
-576.727
-1072.9
-1273.38
-1176.7
-712.378
-250.289
490.135
1114.69
1617.4
1846.1
2016.87
1570.41
611.288
-995.557
-3026.91
-5251.87
-7311.77
-11153.9
-18469.2
-25520.4
-31639.4
-36320.3
-40759
-44724.2
-48645.9
-49011.5
-53013.3
-52364.8
-56191.7
-115.255
-204.606
-88.9145
79.6406
-71.6618
-465.248
-1048.83
-1671.07
-1752.38
-1610.91
-1207.47
-762.735
-129.904
393.302
765.605
737.666
584.802
-91.9425
-1255.63
-2817.02
-4585.77
-6793.46
-8592.75
-12459.4
-19778.4
-26968.7
-33090.1
-37877.7
-42283.9
-46869.7
-50979.6
-51418.1
-55586.9
-55013
-58901
-156.754
-288.166
-184.662
-100.413
116.64
-258.554
-994.404
-1662.29
-2180.96
-2278.46
-2077.25
-1776.64
-1259.77
-851.744
-383.278
-274.575
-609.745
-972.207
-1852.15
-3173.83
-4821.09
-6340.3
-8531.15
-10081.8
-13992.3
-21250.2
-28444
-34596.3
-39420.9
-43834
-49269.8
-53418.3
-53891.9
-58212.3
-57731.3
-61637
-239.838
-376.319
-315.984
-184.297
-137.161
-138.326
-749.687
-1598.98
-2394.12
-2791.91
-2875.06
-2569.59
-2375.74
-1887.71
-1578.62
-1283.58
-1514.98
-2025.1
-2597.52
-3606.85
-5104.12
-6934.98
-8335.55
-10435.1
-11794.6
-15773.8
-22902.2
-30034.9
-36174.5
-40962.6
-45489.3
-51738.6
-55964.7
-56419.7
-60889.1
-60485.4
-64431
-321.857
-490.763
-392.483
-406.997
-223.732
21.4393
-514.344
-1380.04
-2361.33
-3102.67
-3452.36
-3461.66
-3212.68
-3010
-2626.23
-2447.2
-2353.53
-2804.3
-3483.93
-4223.84
-5400.87
-7112.58
-9177.64
-10557.2
-12490.2
-13791.8
-17776.2
-24750.4
-31687.7
-37799.6
-42504.2
-47245.9
-54188.1
-58621.9
-59019.8
-63622.6
-63303.7
-67249.9
-362.706
-589.745
-476.828
-560.357
-422.016
-269.78
-424.54
-1187.18
-2229.79
-3209.5
-3860.95
-4146.35
-4056.34
-3935.7
-3773.53
-3474.91
-3441.3
-3530.83
-4114.1
-4932.29
-5878.67
-7316
-9250.34
-11516.4
-12997.8
-14700.8
-16095.1
-20010.8
-26821.6
-33492.9
-39354.7
-44070.3
-49144.9
-56556.3
-61410.3
-61681.3
-66405.9
-66156.4
-70117.3
-401.951
-675.099
-564.643
-668.92
-692.013
-532.142
-470.867
-1026.15
-1986.33
-3142.02
-4081.78
-4648.39
-4862.85
-4855.57
-4703.8
-4635.34
-4416.57
-4559.18
-4756.01
-5414.24
-6415.96
-7602.54
-9366.11
-11507.6
-13970.3
-15674.5
-17181.7
-18737.6
-22492.5
-29095.8
-35510.6
-40799
-45719
-51204.7
-58625.1
-64308
-64420.9
-69252.8
-69065.9
-72998.2
-483.231
-726.654
-634.213
-813.406
-838.102
-830.261
-717.476
-860.07
-1821.41
-2878.28
-4139.17
-4969.92
-5468.23
-5617.28
-5673.54
-5569.71
-5599.47
-5510.97
-5731.49
-6029.37
-6758.24
-8020.3
-9451.41
-11538.7
-13902.3
-16574.5
-18558.7
-19997.1
-21675.2
-25210.9
-31579.9
-37723.8
-42107.5
-47516.7
-53408.8
-60739.4
-67347
-67228
-72151.6
-72008.7
-75919.2
-592.34
-683.822
-748.426
-927.262
-1028.59
-1080.6
-1054.94
-1028.3
-1540.89
-2658.9
-4072.12
-5179.54
-5925.63
-6345.73
-6477.98
-6584.98
-6544.84
-6678.16
-6694.45
-6934.84
-7390.65
-8213.21
-9757.48
-11459.4
-13859.8
-16507.3
-19389.1
-21726.1
-23208
-24890.5
-28307.1
-34140.5
-40170.4
-43334
-49543.7
-55849.5
-63029.5
-70521.6
-70121.1
-75122
-75002.7
-78851.1
-631.624
-844.477
-860.227
-1008.35
-1218.25
-1248.15
-1364.04
-1330.69
-1426.51
-2371.03
-3734.16
-5281.95
-6228.07
-6953.31
-7241.83
-7384.24
-7581.04
-7650.56
-7860.76
-7939.24
-8238.66
-8831.31
-9815.49
-11653.7
-13662.8
-16388.5
-19335.5
-22509.8
-25204.5
-26882.2
-28386.1
-31866.1
-36731.5
-42695.7
-44597.6
-51847
-58588.4
-65646.2
-73881
-73097.9
-78147.4
-78026.8
-81817.7
-647.404
-1109.56
-959.251
-1165.31
-1349.48
-1498.22
-1628.24
-1614.51
-1611.13
-2049.49
-3478.7
-4962.67
-6500.41
-7389.53
-7955.51
-8234.84
-8402.03
-8636.36
-8843.29
-9099.12
-9269.13
-9658.48
-10398.6
-11597.1
-13741.5
-16108.3
-19140.4
-22491.8
-25994.6
-29082.7
-31066.3
-32309.7
-35957.8
-39363.2
-45166.9
-45949.5
-54508.6
-61670.8
-68504.1
-77383.4
-76183.5
-81245.9
-81094.3
-84793.5
-622.861
-1186.96
-1064.33
-1407.67
-1525.37
-1642.73
-1896.84
-1869.47
-1870.15
-1947.6
-3051.74
-4747.81
-6443.81
-7774.83
-8446.34
-8998.99
-9309.88
-9523.05
-9817.58
-10114.3
-10462.2
-10683.5
-11223.6
-12097.2
-13579.2
-16034.8
-18786.3
-22217.8
-26005.5
-29916.5
-33387.6
-35750.7
-36729
-40474.2
-42081.5
-47401.7
-47498.4
-57613.3
-65214.5
-71684.9
-81108.9
-79383.2
-84401.5
-84192.3
-87796.2
-651.068
-1258.95
-1536.58
-1356.19
-1706.52
-1842.36
-2119.18
-2073.31
-2072.65
-2195.55
-2742.98
-4264.64
-6217.59
-7943.19
-8995.02
-9573.47
-10166
-10461.1
-10780.1
-11121.9
-11475.1
-11930.4
-12248.2
-12940.1
-13952.2
-15755.8
-18483.2
-21769
-25661
-29937.9
-34337.5
-38217.3
-40943.5
-41704.4
-45396.2
-45136.1
-49268.3
-49401.6
-61141.6
-69270
-75083.1
-84967.5
-82715.1
-87633.2
-87323.5
-90807
-808.093
-1358.37
-1704.34
-1664.44
-2002.95
-2080.02
-2271.88
-2399.13
-2443.49
-2494.46
-2564.07
-3879.75
-5804.63
-7913.01
-9466.74
-10391.2
-10815.1
-11365.3
-11748.2
-12169.9
-12571.4
-12919.2
-13516.3
-13958.5
-14842.1
-15993
-18090.1
-21143.7
-25063.4
-29514.7
-34342.8
-39334.6
-43596.3
-46678.2
-47253.1
-50582.1
-48699.5
-50890.7
-51718.6
-64944.5
-73806.5
-78813.2
-88987.8
-86173.7
-90919.8
-90484.4
-93839.5
-867.298
-1690.87
-2093.56
-2198.03
-2180.56
-2293.86
-2469.26
-2650.69
-2666.18
-2761.59
-2889.35
-3466.31
-5331.32
-7673.75
-9750.67
-11047.6
-11783.7
-12144.3
-12705.3
-13066.7
-13707.4
-14106.9
-14511.5
-15182
-15831
-16982.7
-18240.3
-20661.4
-24084.6
-28673.3
-33836.2
-39324.3
-44938.5
-49609
-53028.7
-53462.2
-56066.6
-52813.1
-52394.2
-54693.5
-68931.8
-78750.5
-82849
-93060.3
-89751.7
-94281.6
-93671.5
-96877.1
-908.713
-1866.66
-2689.2
-2462
-2425.64
-2686.47
-2634.21
-2945.84
-3054.02
-3247.7
-3328.15
-3609.92
-4841.67
-7313.96
-9902.01
-11649.7
-12516.2
-13162.3
-13505.8
-14098.8
-14465.6
-15284.6
-15764.7
-16279.2
-16973.5
-17855.7
-19339.9
-20793.8
-23537
-27336.8
-32619.9
-38682.1
-44913
-51196.9
-56302.1
-60075.8
-60381.6
-61962.1
-57396.4
-54076
-58137.5
-73024.6
-83956.1
-86896.4
-97240
-93447
-97700.6
-96892.6
-99930.9
-989.346
-1870.1
-3079.68
-3145
-2886.17
-2850.96
-2783.66
-3212.73
-3353.05
-3818.67
-3895.22
-3998.69
-4751.28
-6854.15
-9793.17
-12219.8
-13431.9
-14086.5
-14647.9
-14879.8
-15617.6
-15988.2
-16925.2
-17523.1
-18206.1
-18944.3
-20028.3
-21774.4
-23688.8
-26695.1
-30891.1
-36980.2
-44073.5
-51167.6
-58156.4
-63776.1
-67917
-68062
-68511.8
-62396.1
-56259.6
-61976.9
-77249.2
-89275.5
-90687.5
-101441
-97245.9
-101188
-100139
-102988
-1053.32
-1922.98
-3232.15
-3767.99
-3476.52
-3102.52
-3032.85
-3441.99
-3734.43
-4257.74
-4423.7
-4861.75
-4844.34
-6609.77
-9781.39
-12536.2
-14260.4
-15164.4
-15629.6
-16072.6
-16405.9
-17201.6
-17695.2
-18687.7
-19392.4
-20313.7
-21112.4
-22410.2
-24248.7
-26890.1
-30111.5
-34806.9
-41820.1
-50051.9
-58087.2
-65875.7
-72085
-76617.6
-76538.8
-75714.7
-67862.3
-58956
-66180.1
-81440.7
-94579.8
-94006.6
-105642
-101145
-104734
-103381
-106054
-1051.41
-1991.32
-3432.75
-4010.44
-4199.03
-3420.4
-3238.54
-3623.82
-4074.65
-4891.34
-5389.22
-5712.91
-5224.63
-6587.23
-9923.24
-13097.4
-15098.1
-16059.4
-16804.6
-17159.7
-17621.1
-17989.3
-18895.9
-19505.3
-20579.5
-21358.9
-22582.7
-23501.7
-25035.8
-26922.7
-30272.4
-33866.7
-39173.1
-47230.6
-56615
-65692.7
-74403.9
-81328.4
-86258
-85888.5
-83703.8
-73737.6
-62321.9
-70523.2
-84965.5
-99911.4
-97209
-109827
-105135
-108344
-106298
-109128
-1055.39
-1992.84
-3579.52
-4176.85
-4599.57
-3791.47
-3417.56
-3807.13
-4382.89
-5535.08
-6639.31
-6808.52
-5803.31
-6500.88
-10165.3
-13944.3
-16190.9
-17353.8
-17992.8
-18389.8
-18710
-19188.2
-19683.2
-20700.5
-21424.4
-22600.7
-23426.7
-25027.1
-26069.6
-27969.9
-29925.5
-33876.2
-38039
-44114.8
-53212.9
-63757.8
-74011.9
-83847.4
-91595.1
-96884.7
-96122.5
-92403.6
-80146.1
-66199.2
-75149.5
-87369.9
-104925
-100486
-113981
-109215
-112011
-108759
-112228
-1080.73
-1994.16
-3564.58
-4334.79
-4819.27
-4036.16
-3635.13
-3936.9
-4600.95
-5976.8
-7468.69
-8217.62
-7829.2
-7564.61
-10703
-14977.8
-18039.8
-19022.8
-19314.6
-19613.5
-19887.4
-20253.7
-20828.1
-21459.8
-22617.1
-23438.1
-24776.4
-25624.6
-27607.6
-28818.2
-31172.2
-33379.1
-37769.1
-42807.9
-49680.1
-59731.6
-71496.5
-83158.3
-94298
-102970
-108548
-107260
-101934
-87100.7
-70555.5
-79803.3
-89111.3
-109215
-103778
-118083
-113387
-115745
-110924
-115275
-1101.84
-2043.69
-3533.42
-4292.5
-4905.55
-4008.96
-3802.58
-4012.1
-4707.38
-6310.9
-7830.69
-9431.11
-10299.5
-9377.94
-12132.5
-16472.7
-20106.1
-21415.4
-21126.6
-21031.2
-21127.4
-21472
-21847.6
-22544.9
-23355
-24650.8
-25576.6
-27108.8
-28017.3
-30277.3
-31789.9
-34609.7
-37326.3
-42052.7
-48182.8
-55855.3
-66777.3
-79936.3
-93277.4
-105868
-115512
-121259
-119337
-112214
-94694.7
-75430.1
-84281.2
-90509.6
-112761
-107077
-122092
-117622
-119549
-113350
-117756
-1143.8
-2083.36
-3573.41
-4206.21
-4814.21
-4048.77
-3876.65
-4059.55
-4675.52
-6483.85
-8510.42
-10992
-12178
-11639.1
-13919.1
-18247.1
-22700
-24272.5
-23569.3
-22959.5
-22469.6
-22647.3
-22934.6
-23502.9
-24353.8
-25369.3
-26796.6
-27859.3
-29581.2
-30680.9
-33090.2
-35023.4
-38314.3
-41682.3
-46873.2
-54049.6
-62585.7
-74445.7
-89230
-104514
-118579
-129189
-135064
-132381
-123344
-102926
-80728.9
-88555.5
-91723.3
-115463
-110844
-126005
-121941
-123442
-116130
-119605
-1203.67
-2063.81
-3568.86
-4150.07
-4680.34
-4048.73
-3924.53
-4005.96
-4573.73
-6494.18
-9120.66
-13505.8
-13823.7
-13507.7
-15952.8
-20527.2
-25884.8
-27699.5
-26500.1
-24860.9
-24120.7
-23644.2
-24143.4
-24475
-25235.2
-26293.9
-27518.1
-29071.9
-30298.2
-32208
-33599.8
-36198.9
-38502.7
-42360.6
-46433.6
-52261.7
-60367.6
-69853
-82946.4
-99558.7
-116936
-132446
-144050
-149983
-146430
-135300
-111835
-86548.2
-92590.9
-93969.7
-117858
-114649
-129842
-126299
-127413
-119228
-121179
-1253.31
-2062.91
-3520.91
-4069.12
-4586.6
-3903.95
-3833.08
-3755.2
-4405.05
-6367.04
-9367.63
-15131.8
-15394.8
-14596.1
-17431.5
-22714.8
-29331.4
-31759.7
-29820.8
-27344.6
-25790.1
-24874.9
-25143
-25511.8
-26072.7
-27069.7
-28382.7
-29790.6
-31492.4
-32886.6
-35040.9
-36710.8
-39668.5
-42253.6
-46769.6
-51637.6
-58218.1
-67221.6
-77733.3
-92529.4
-111016
-130525
-147451
-160012
-165985
-161520
-148159
-121409
-92826.1
-96537.2
-96469.6
-120411
-118840
-133767
-130738
-131449
-122559
-123090
-1307
-2080.61
-3478.65
-3975.82
-4461.08
-3809.24
-3649.58
-3396.03
-4221.17
-6078.43
-9322.94
-14474.5
-15681.4
-15348.5
-17645.2
-24097.8
-32401.7
-36036.9
-33750.2
-29903.2
-27762
-26475.2
-26057.7
-26285.9
-26909.4
-27792.1
-29058.8
-30629.4
-32191.6
-34067.6
-35634.4
-38059.1
-40028.2
-43423.7
-46363.1
-51558.6
-57337
-64735.1
-74700.8
-86410.6
-103361
-123667
-145257
-163536
-177074
-183105
-177693
-161880
-131681
-99730.9
-100254
-98562.6
-123213
-123872
-137985
-135219
-135533
-125979
-125597
-1357.66
-2062.42
-3454
-3896.74
-4303.42
-3690.11
-3479.4
-3095.47
-3981.16
-5726.65
-9052.9
-13839.9
-15264.9
-15833
-16671.2
-24314.2
-34021.1
-39535.4
-37462.3
-32496
-29537.9
-27897.9
-27062.2
-27196.7
-27664
-28519.7
-29626.2
-31222.3
-33028
-34731.3
-36773.1
-38584.3
-41281.1
-43630.6
-47434.1
-50868
-56770.8
-63495.1
-71854.9
-82936.2
-96022.8
-115482
-137508
-160992
-180615
-195193
-201269
-194891
-176503
-142656
-107194
-103555
-101274
-126643
-129579
-142853
-139810
-139665
-129420
-128577
-1406.75
-2022.74
-3413.74
-3805.83
-4175.63
-3519.25
-3322.9
-2813.52
-3596.01
-5428.38
-8610.2
-13293.6
-15856
-15256.5
-15154.8
-23109.2
-33646.3
-40760.5
-40235.3
-35089.4
-31019.6
-29520.3
-28319.7
-28010.7
-28249.8
-29070.1
-30281.7
-31709.2
-33564.1
-35545.5
-37418.2
-39648.9
-41719.9
-44714.6
-47530.5
-51718.4
-55793.7
-62441.6
-70038.1
-79583.6
-92040
-106693
-128853
-152453
-177654
-198636
-214351
-220465
-213177
-192002
-154346
-115385
-106547
-104741
-131113
-135866
-148244
-144469
-143841
-132729
-131771
-1461.38
-2060.06
-3348.94
-3721.22
-4027.16
-3364.23
-3151.97
-2558.03
-3229.74
-5145.86
-8085.89
-12558.3
-17049.8
-14343.9
-13351.1
-21127.1
-32211.3
-40654.1
-41194.8
-36413.9
-32284.9
-30850.6
-29538
-28698.9
-28733.6
-29540.1
-30723.8
-32233
-33981.7
-36056.1
-38208.7
-40249.7
-42695.3
-45082.4
-48415.3
-51716.8
-56327.2
-61155.5
-68617.7
-76945.8
-87948.9
-102034
-118485
-143289
-168353
-195162
-217504
-234520
-240676
-232488
-208390
-166728
-124310
-109599
-109065
-136529
-142718
-154217
-149260
-148050
-135940
-134945
-1527.36
-2125.39
-3376.94
-3633.97
-3871.89
-3217.84
-2963.63
-2346.63
-2899.12
-4738.25
-7622.5
-11803.5
-16758.5
-13532.3
-11975.4
-18670.6
-29740.5
-39394.4
-40986.7
-36638.6
-33320.8
-31991.3
-30657.6
-29400.9
-29202.8
-29822.9
-30984.6
-32573.3
-34266.6
-36486
-38711.7
-41014.9
-43229.6
-45946.6
-48659.7
-52382.3
-56202.7
-61291
-66967.3
-75293
-84303.7
-96945.3
-113006
-131368
-158628
-185074
-213463
-237198
-255783
-262002
-252957
-225628
-179837
-134038
-112922
-115455
-142619
-150274
-160924
-154179
-152250
-139009
-137986
-1600.86
-2158.56
-3426.3
-3552.31
-3733.44
-3052.79
-2796.58
-2144.27
-2615.05
-4265.9
-7183.05
-11049.6
-15929.2
-12489.9
-10999.5
-16345.5
-27496
-37026
-39926.7
-36192.6
-33184.4
-32975.3
-31968.1
-30238.7
-29402.9
-29975
-31196.5
-32714.9
-34599.9
-36576.7
-39134.6
-41464.7
-43955.6
-46391.2
-49426.7
-52487.8
-56642.6
-60978.4
-66676.4
-73199.3
-82457.6
-92158.3
-106607
-124946
-145243
-174715
-202415
-232504
-257774
-278305
-284555
-274493
-243752
-193658
-144597
-116755
-123230
-149444
-158936
-168110
-159266
-156413
-142033
-140872
-1676.5
-2213.31
-3440.2
-3478.58
-3628.86
-2894.35
-2625.34
-1936.54
-2374.95
-3916.1
-6707.19
-10332.7
-14891.7
-11812.1
-10147.6
-14544
-25284.6
-34730.4
-38528
-35923.9
-32610.8
-33835.5
-33729.6
-30804.2
-29299.4
-30034.8
-31341.6
-32803.9
-34675.8
-36870.4
-39170.3
-41911.6
-44354.4
-47069.1
-49755.6
-53122.1
-56584.1
-61187.3
-66070.1
-72483.6
-79895
-90041.8
-100660
-116932
-137854
-160027
-191410
-220224
-252333
-279399
-302241
-308416
-297327
-262735
-208257
-156051
-122188
-132161
-157399
-168375
-175821
-164494
-160607
-145050
-143634
-1752.49
-2269.2
-3451.55
-3411.88
-3570.27
-2775.45
-2451.04
-1760.16
-2164.5
-3582.62
-6172.67
-9749.42
-13980.4
-11712.6
-9528.99
-13135
-23599.3
-33405.9
-36983.9
-35670.4
-32986.6
-34670.5
-35847.5
-31404.2
-29131.2
-30023.8
-31267.3
-32898.6
-34694.8
-36893.6
-39337.4
-41949
-44774.8
-47421.2
-50368.9
-53331.2
-57078
-60943.8
-66032.8
-71526.3
-78676.7
-87122.4
-97974.6
-109954
-127945
-151656
-175566
-208571
-238445
-273075
-302240
-327789
-333774
-321342
-282654
-223626
-168430
-128814
-143997
-167016
-179008
-183994
-169900
-164824
-148112
-146306
-1823.93
-2300.23
-3489.18
-3392.92
-3524.19
-2699.64
-2291.1
-1592.1
-1979.28
-3307.96
-5783.02
-9206.32
-13166.3
-11600
-9409.54
-12345.4
-22660
-32238.1
-35701.9
-35365.5
-33562.8
-35336.2
-38170.8
-32489.2
-29167
-29833.5
-31041
-32953
-34773
-36870.4
-39320.1
-42044.7
-44896.5
-47840.4
-50657.8
-53862.9
-57146.6
-61275.2
-65596
-71177.8
-77393.8
-85249.7
-94937.6
-106281
-120036
-139783
-166276
-191732
-226151
-257182
-294860
-326426
-355006
-360542
-346859
-303541
-239785
-181867
-137031
-158867
-178619
-190818
-192644
-175442
-169128
-151193
-148933
-1892.19
-2327.7
-3515.09
-3386.01
-3463.26
-2620.52
-2131.66
-1423.24
-1820.38
-3104.24
-5434.4
-8758.52
-12498.6
-11506
-9644.87
-12412.9
-22045.9
-31507.7
-34961.2
-35003.5
-34065
-35996.4
-39981.8
-33759
-28396.9
-28824.9
-30789.3
-32807
-34794.4
-36939.5
-39308
-41997.7
-44924
-47970
-51042.3
-54090.6
-57575.4
-61189.3
-65748.5
-70513.6
-76667.5
-83639.2
-92245
-103291
-115084
-130817
-152416
-181579
-208422
-244160
-276573
-317798
-352086
-384104
-389111
-373892
-325385
-256851
-196285
-147254
-177445
-192533
-203854
-201721
-181152
-173432
-154145
-151551
-1962.67
-2330.53
-3527.01
-3390.38
-3411.73
-2531.4
-1954.54
-1279.03
-1694.89
-2930.22
-5142.24
-8348.72
-11907.4
-11426
-10102.6
-12826.1
-22072
-31274.5
-34619.4
-34629.1
-34242.4
-35909.6
-39210
-34481.7
-26847.7
-27365.9
-30566.7
-32602.2
-34755.2
-36887.5
-39234.4
-41925.2
-44753.2
-47992.1
-51192.6
-54419.7
-57724.7
-61494.7
-65501.7
-70471.3
-75734.7
-82496.4
-90275
-99696.2
-112068
-124534
-142321
-165798
-197389
-225676
-262625
-296782
-341956
-379308
-415170
-419263
-402520
-348470
-274847
-211992
-159381
-198981
-209154
-218192
-211160
-186963
-177767
-156857
-154155
-2034.6
-2346.51
-3519.61
-3373.68
-3327.05
-2405.03
-1778.3
-1133.24
-1585.1
-2801
-4925.51
-8047.55
-11476.8
-11362.5
-10567.1
-13347.9
-22407.7
-31323.8
-34503.3
-34399.1
-34237
-35737.7
-37728.8
-33108.9
-24454.6
-25596.3
-30358.1
-32296.7
-34702.8
-36872.9
-39225.2
-41781.6
-44766.3
-47799.3
-51216.2
-54557.1
-57985.9
-61552.8
-65660.8
-70043
-75484.7
-81233.3
-88700.4
-97262.5
-107598
-121174
-134658
-154658
-179861
-213567
-243512
-281586
-317970
-367471
-408332
-448490
-451436
-433387
-372704
-293991
-228947
-173694
-223421
-228927
-233465
-220798
-192897
-181997
-159674
-156725
-2107.89
-2364.65
-3519.48
-3312.3
-3211.3
-2255.64
-1608.11
-999.965
-1494.21
-2701.44
-4778.86
-7784.32
-11221.4
-11344.6
-10970.1
-13887.1
-22799.1
-31477.2
-34350.6
-34443.5
-34197
-35771.3
-36167.5
-29891.6
-21206
-23760.8
-30002.1
-32128.3
-34684.6
-36809.2
-39188.4
-41689.1
-44517.2
-47722.2
-51177
-54600.2
-58103.6
-61731.3
-65614.3
-70038.6
-74863.3
-80744.4
-87048.7
-95268
-104603
-115958
-130563
-145467
-167896
-194823
-229989
-261924
-301115
-340318
-394521
-439239
-484206
-485810
-466009
-398603
-314324
-247203
-190794
-247662
-250036
-249352
-230655
-198871
-186178
-162933
-159255
-2178.61
-2380.86
-3532.56
-3240.87
-3094.04
-2107.22
-1444.1
-874.853
-1418.17
-2633.34
-4684.62
-7608.12
-10986.7
-11206.3
-11310.7
-14375.2
-23143.7
-31538.3
-34163.7
-34364.8
-34202
-36348.4
-35694.8
-26596.9
-18040.7
-22180.3
-29579.7
-32054.5
-34585.9
-36688.4
-39161.6
-41630.4
-44397
-47520.4
-50889.4
-54629.4
-58164.2
-61810.4
-65697.2
-69872.1
-74678.8
-79916.6
-86291.4
-93171.2
-102184
-112273
-124725
-140252
-156973
-181485
-210768
-246665
-280840
-321362
-364022
-423136
-472127
-522656
-522367
-501818
-426070
-335914
-267033
-210474
-273082
-272402
-265828
-240641
-204877
-190356
-165804
-161700
-2247.92
-2406.61
-3540.29
-3183.28
-2988.43
-1976.71
-1290.19
-762.995
-1354.99
-2587.56
-4645.41
-7476.3
-10742.8
-11075.2
-11587.2
-14816.7
-23319.1
-31522.7
-34144.9
-34108.2
-34140.5
-37272.7
-36657
-24723.1
-16337.1
-21060.2
-29064.3
-31980
-34476.7
-36614.9
-39147.5
-41507.3
-44283.1
-47263.2
-50736.1
-54248.6
-58179.8
-61839.2
-65714.1
-69851.5
-74371
-79543.3
-85228.7
-92102.2
-99606
-109449
-120271
-133886
-150216
-169247
-195109
-227383
-263621
-300216
-342553
-389133
-453234
-507059
-564166
-562303
-539942
-455368
-359007
-288424
-233405
-299653
-296583
-282607
-250737
-210812
-194403
-168396
-164098
-2311.4
-2434.29
-3556.25
-3117.19
-2887.27
-1862.18
-1141.71
-661.74
-1302.99
-2561.58
-4638.15
-7394.12
-10489.5
-10992.3
-11827.1
-15152.1
-23415
-31431.8
-34163.8
-33804.7
-34079.1
-38459.8
-38718.5
-24079.8
-15511.5
-20375.6
-28713
-32009.9
-34450.7
-36571.3
-39024.3
-41424
-44155.4
-47182.2
-50414.6
-54109.3
-57846.4
-61827.4
-65695
-69805
-74218.6
-79085.9
-84656.3
-90789.4
-98182.9
-106357
-117023
-128574
-143401
-160506
-182117
-208931
-244372
-280745
-320118
-364828
-415656
-484586
-544066
-609166
-604916
-581617
-486725
-383660
-311620
-258672
-330073
-321613
-299411
-260878
-216653
-197914
-171016
-166470
-2371.32
-2468.8
-3560.3
-3072.06
-2795.81
-1756.12
-1012.5
-569.504
-1261.84
-2550.31
-4661.33
-7344.13
-10264
-10970.9
-11992
-15438.4
-23408.7
-31260.2
-34150.4
-33502.8
-34160
-40148.5
-41631.9
-24773.8
-15461.7
-20406.9
-28610.7
-32202.5
-34519
-36625.7
-38921.5
-41293.2
-44064.1
-46936.3
-50228.8
-53813.1
-57658
-61633.5
-65657
-69729.7
-74087.7
-78785.7
-84033.5
-90001.5
-96583
-104542
-113408
-124897
-137188
-153251
-171240
-195406
-223169
-261365
-298025
-340504
-388237
-443611
-517174
-583484
-658245
-651567
-626582
-520136
-410002
-336504
-286973
-364090
-347641
-316085
-271033
-222344
-200268
-173549
-168807
-2428.51
-2507.4
-3577.77
-3019.33
-2711.68
-1656.14
-894.141
-487.866
-1228.1
-2549.69
-4698.89
-7315.06
-10086.6
-10992.6
-12099.8
-15639.2
-23376.1
-31011.9
-34035.5
-33366.8
-34649
-42565.7
-44886.9
-27304.5
-15622.9
-20918.9
-29206.5
-32739.1
-34681.1
-36606.4
-38849.6
-41114.7
-43849.4
-46874
-50080.6
-53597.2
-57412.9
-61401.1
-65502.7
-69656.6
-73949.5
-78557.3
-83569.1
-89210.4
-95569.7
-102631
-111163
-120751
-133030
-146107
-163391
-182510
-208945
-238185
-278102
-315599
-361370
-412681
-472957
-551144
-625685
-711469
-702057
-675348
-555886
-437920
-363365
-317036
-397089
-374309
-332564
-281167
-227890
-202527
-176087
-171078
-2482.1
-2551.45
-3583.17
-2975.73
-2631.21
-1564.33
-793.049
-415.044
-1202.33
-2558.13
-4750.51
-7303.25
-9959.81
-11051.9
-12164.7
-15806.2
-23273.7
-30745.3
-33866
-33359.1
-35417.5
-45223.3
-48115.4
-30210.9
-16135.2
-22038.6
-30513
-33599
-34912.6
-36606.1
-38734.7
-40918.5
-43579.1
-46833.5
-49960.1
-53409.7
-57142.5
-61194.9
-65328.2
-69511.3
-73819.9
-78339.2
-83223
-88548.5
-94585.5
-101356
-108904
-118051
-128362
-141421
-155328
-173826
-194309
-222695
-254044
-294725
-333576
-382680
-437957
-503748
-586860
-670894
-770095
-757251
-728297
-593554
-467591
-391949
-349434
-429610
-401626
-348771
-291260
-233282
-206132
-178513
-173242
-2534.97
-2596.68
-3599.05
-2930.77
-2563.7
-1485.99
-702.345
-354.201
-1181.69
-2571.78
-4809.1
-7307
-9883.97
-11103.3
-12238.5
-15930.5
-23167.3
-30416.1
-33687.6
-33378.2
-35899.7
-47540.6
-50988
-33523.1
-17897.9
-23846.5
-32256.4
-34711.9
-35212.1
-36699.8
-38631.2
-40653.7
-43302.6
-46732.3
-49855.5
-53293.1
-56967.6
-60896.4
-65034
-69351
-73667.2
-78139.4
-82921.1
-88065.1
-93707.9
-100145
-107346
-115419
-125181
-136232
-150031
-164831
-184556
-206535
-236747
-270199
-311499
-351980
-404394
-463956
-535832
-624350
-719859
-834580
-817548
-785392
-633796
-498731
-422191
-383095
-461568
-429023
-364594
-301282
-238473
-209834
-180773
-175324
-2584.65
-2645.35
-3606.06
-2892.85
-2500.3
-1416.2
-624.992
-302.073
-1162.81
-2590.27
-4873.64
-7329.63
-9835.27
-11121.7
-12286.3
-16024
-23025
-30094.6
-33531.1
-33482.5
-36234.1
-49276
-53641.6
-37027.1
-20161.8
-26183.5
-34225.9
-35989.9
-35552.2
-36790.6
-38579.3
-40299.8
-43032.6
-46542.1
-49756
-53197.4
-56818.8
-60666.3
-64807.3
-69046.5
-73474.6
-77952.5
-82626.7
-87679.3
-93075.8
-99092.1
-105893
-113538
-122148
-132553
-144324
-158853
-174608
-195581
-219124
-251109
-286276
-328401
-370931
-426397
-490679
-569295
-663742
-773094
-906080
-884360
-848110
-676214
-531327
-453918
-417978
-493574
-456129
-379877
-311189
-243397
-213253
-182993
-177330
-2632.92
-2695.39
-3613.89
-2858.64
-2447.06
-1358.3
-560.657
-259.924
-1140.58
-2615.04
-4940.56
-7361.43
-9805.43
-11118.6
-12335.3
-16089.5
-22891.7
-29758.5
-33348.5
-33754.8
-36461.4
-50622.4
-55643.1
-40752.9
-22643.8
-28812.4
-35915.1
-37166.1
-35841.1
-36788.8
-38514.1
-39925.5
-42652.8
-46364.1
-49649.9
-53154.8
-56686.7
-60533.2
-64536.9
-68819.1
-73230.6
-77736.3
-82402.1
-87276.9
-92615.8
-98281.3
-104701
-111845
-119928
-129099
-140134
-152619
-167860
-184636
-206879
-231976
-265688
-302334
-345367
-390606
-448592
-518249
-604216
-705390
-831042
-986473
-958254
-916098
-721313
-565372
-487012
-454431
-524759
-482712
-394496
-321000
-248051
-216835
-185220
-179280
-2678.81
-2747.56
-3632.31
-2827.93
-2399.38
-1310.83
-505.998
-222.982
-1109.56
-2649.66
-5007.55
-7401.4
-9780.32
-11093.2
-12389.9
-16140.5
-22735.6
-29442
-33184.8
-34018.9
-36613.9
-51724.1
-57962.9
-44598.5
-24744.1
-30879.9
-36917.1
-37745.3
-35807.6
-36706.3
-38371.6
-39525.9
-42295.8
-46159.5
-49523.2
-53050.9
-56663.9
-60349.7
-64336.7
-68568.4
-72971.8
-77491
-82137.2
-86988.2
-92091.8
-97684.4
-103682
-110446
-117967
-126506
-136241
-147906
-161084
-177047
-194909
-218406
-245055
-280393
-318366
-362399
-410919
-471100
-546702
-640767
-750192
-895134
-1.07556e+06
-1.03968e+06
-991023
-769100
-600971
-521428
-491167
-555504
-508976
-408352
-330679
-252429
-220141
-187375
-181140
-2721.43
-2799.24
-3646.22
-2803.17
-2361.19
-1271.94
-464.563
-189.515
-1076.22
-2699.82
-5072.99
-7441.41
-9753.36
-11065.2
-12443.7
-16166
-22596.8
-29123.6
-33014.9
-34332.8
-36606.4
-52692.5
-60320.3
-47911.9
-26612
-32084.5
-37182
-37563.2
-35672.1
-36572.3
-38102.4
-39127.2
-41846.2
-45868
-49439.3
-52962
-56697.3
-60298.9
-64218.4
-68361.8
-72719.6
-77221.3
-81891.8
-86670.7
-91721.8
-97066.9
-102903
-109226
-116366
-124258
-133263
-143569
-155841
-169700
-186400
-205380
-230102
-258290
-295142
-334314
-379580
-431419
-494255