/*--------------------------------*- C++ -*----------------------------------*\
| =========                 |                                                 |
| \\      /  F ield         | OpenFOAM: The Open Source CFD Toolbox           |
|  \\    /   O peration     | Version:  2212                                  |
|   \\  /    A nd           | Website:  www.openfoam.com                      |
|    \\/     M anipulation  |                                                 |
\*---------------------------------------------------------------------------*/
FoamFile
{
    version     2.0;
    format      ascii;
    arch        "LSB;label=32;scalar=64";
    class       surfaceScalarField;
    location    "100";
    object      phi;
}
// * * * * * * * * * * * * * * * * * * * * * * * * * * * * * * * * * * * * * //

dimensions      [0 3 -1 0 0 0 0];

oriented        oriented;

internalField   nonuniform List<scalar> 
328790
(
3.38062
-88.7858
5.70172
-76.9518
3.47289
-92.2587
8.94794
-72.2752
6.03272
-79.5117
3.52204
-95.7807
12.01
-80.8513
9.42865
-75.6711
6.15824
-82.1479
3.60402
-99.3847
14.6921
-76.9199
12.5374
-83.9601
9.59849
-79.1114
6.36406
-84.9079
3.66053
-103.045
16.6265
-65.4258
15.2055
-79.588
12.7098
-87.0714
9.90716
-82.6545
6.49098
-87.7384
3.73976
-106.785
17.5516
-47.84
17.0233
-67.2436
15.3161
-82.1944
13.0483
-90.2125
10.0787
-86.2422
6.67781
-90.6764
3.79424
-110.579
17.5492
-29.9588
17.6732
-48.4899
17.0673
-68.9948
15.5345
-84.6806
13.2007
-93.3345
10.3386
-89.903
6.8038
-93.686
3.8706
-114.45
17.6096
-15.1209
17.6482
-29.9338
17.6477
-49.0703
17.1299
-70.5901
15.5741
-87.054
13.4434
-96.4393
10.485
-93.5842
6.98981
-96.8052
3.91452
-118.364
17.2769
-4.76029
17.4059
-14.8786
17.5838
-29.8698
17.6228
-49.5633
17.1028
-72.1188
15.653
-89.2636
13.5373
-99.4916
10.7089
-97.3033
7.10837
-99.999
3.96475
-122.329
14.9749
2.88637
17.2342
-4.58863
17.2611
-14.556
17.4391
-29.6861
17.5151
-49.9757
17.0467
-73.5124
15.6373
-91.3637
13.703
-102.486
10.8086
-101.004
7.25607
-103.29
4.00012
-126.329
11.2902
5.82341
16.8651
3.25547
16.9364
-4.26386
17.0378
-14.1547
17.2301
-29.401
17.3896
-50.3186
16.9643
-74.8394
15.6738
-93.3345
13.7274
-105.404
10.9419
-104.689
7.37106
-106.661
4.03472
-130.364
7.54865
4.86856
15.5758
7.11273
16.6583
3.53358
16.5744
-3.80045
16.7243
-13.6488
17.0447
-29.0561
17.2644
-50.6186
16.9133
-76.0788
15.6694
-95.2764
13.7865
-108.249
11.018
-108.336
7.49297
-110.12
4.03386
-134.398
7.0975
1.79202
13.7362
6.7082
15.9664
7.80457
16.1712
3.93676
16.1999
-3.27605
16.5067
-13.1109
16.8841
-28.6759
17.1835
-50.8889
16.852
-77.2614
15.6493
-97.1392
13.8008
-111.032
11.1068
-111.95
7.55339
-113.639
4.0447
-138.443
9.42478
-4.91853
12.7239
2.80432
15.13
7.54463
15.6034
8.37238
15.6252
4.51145
15.879
-2.64833
16.2616
-12.4884
16.6902
-28.1826
17.002
-51.0389
16.7555
-78.3677
15.686
-99.0244
13.8315
-113.756
11.1181
-115.515
7.63335
-117.228
4.02021
-142.463
8.70678
-15.2246
12.1143
-4.309
14.1488
3.78552
14.8446
8.30342
14.9145
9.08311
15.107
5.2834
15.4835
-1.87023
15.9953
-11.7935
16.388
-27.5686
16.8349
-51.1183
16.7379
-79.4195
15.6799
-100.873
13.7846
-116.423
11.1596
-119.041
7.66655
-120.874
4.00619
-146.469
4.10853
-22.2575
9.04418
-12.1544
12.2688
-2.42898
13.8311
4.79896
14.1048
9.11304
14.2067
9.98342
14.6209
6.14606
15.025
-0.899902
15.6326
-11.0381
16.1885
-26.9222
16.7411
-51.1215
16.6498
-80.3894
15.682
-102.77
13.7867
-119.05
11.16
-122.535
7.70789
-124.576
3.95661
-150.426
-1.91953
-23.1141
4.56549
-17.7788
8.99038
-8.87602
11.7978
-0.395641
13.0176
5.88618
13.2372
10.0826
13.4609
11.1434
14.012
7.15905
14.6538
0.0788712
15.2873
-10.1369
15.9274
-26.1085
16.505
-50.9768
16.5442
-81.2515
15.6447
-104.628
13.7371
-121.627
11.1593
-125.986
7.70914
-128.328
3.91974
-154.345
-5.62702
-19.8281
-0.562017
-17.9866
5.40896
-14.1973
8.61926
-5.69747
11.039
1.58299
12.0538
7.06954
12.1485
11.395
12.8831
12.2723
13.4267
8.38611
14.248
1.11821
14.8994
-9.10884
15.6489
-25.2523
16.3041
-50.7367
16.3924
-81.9992
15.6115
-106.503
13.7018
-124.17
11.1272
-129.404
7.71346
-132.122
3.85407
-158.199
-6.89339
-14.4202
-4.47449
-15.9157
0.562797
-13.1404
5.05946
-10.6375
8.43585
-3.09433
10.0828
3.55407
10.6636
8.55437
11.625
12.6531
12.047
13.652
12.9499
9.68423
13.8418
2.17577
14.5915
-8.05142
15.4853
-24.4336
16.0449
-50.3892
16.2577
-82.6454
15.5368
-108.338
13.6414
-126.684
11.0853
-132.776
7.68652
-135.954
3.8003
-162
-7.40879
-11.0564
-6.2826
-12.6121
-3.94572
-11.4072
0.839074
-8.92004
4.62536
-6.82705
7.05564
-0.0671932
8.52669
5.69099
10.0626
10.1168
10.6984
14.0017
11.4269
15.1749
12.4189
11.1072
13.4417
3.32553
14.3604
-6.92651
15.1386
-23.5273
15.8036
-49.9351
16.12
-83.2286
15.4617
-110.158
13.5661
-129.165
11.0121
-136.102
7.65384
-139.808
3.7348
-165.734
-7.75626
-9.64805
-7.21285
-10.1262
-6.07224
-10.4856
-3.43617
-7.13191
0.599132
-4.89381
2.59571
-2.36711
5.88362
2.57588
8.09605
7.65749
8.99839
11.8169
9.95299
15.4756
10.8548
16.739
11.7918
12.7571
13.0403
4.64562
14.061
-5.84888
14.9683
-22.692
15.5638
-49.379
15.972
-83.7389
15.3566
-111.948
13.4996
-131.652
10.9291
-139.377
7.60968
-143.683
3.66367
-169.398
-7.9014
-8.8287
-7.78021
-9.08069
-7.22573
-8.9727
-5.93893
-7.98282
-3.106
-3.42678
-0.804316
-1.49379
2.6337
0.882806
6.04396
4.62797
7.14458
9.51131
8.09349
13.6764
9.249
17.0814
10.0095
18.5213
11.3257
14.4718
12.6479
6.05872
13.7877
-4.66822
14.7848
-21.913
15.3703
-48.7773
15.8091
-84.1913
15.2773
-113.726
13.3929
-134.116
10.8256
-142.593
7.52982
-147.549
3.58073
-172.979
-8.0218
-8.7959
-8.01555
-8.59336
-7.87147
-8.43495
-7.22155
-7.69008
-5.69414
-5.39467
-3.39087
-0.840228
-0.670253
1.81016
3.0653
3.86147
5.22416
6.54839
6.34941
11.2554
7.37541
15.5499
8.30011
18.7908
9.3725
20.4744
10.6127
16.507
12.2664
7.58001
13.622
-3.50544
14.5576
-21.1003
15.1649
-48.1332
15.6874
-84.6014
15.1644
-115.498
13.3357
-136.626
10.6887
-145.752
7.44751
-151.416
3.49759
-176.476
-8.04712
-8.98186
-8.22142
-8.59003
-8.21482
-8.25001
-8.01707
-7.63943
-7.10446
-6.27976
-5.4437
-3.34184
-3.44492
1.93444
-0.913471
5.78893
1.66717
7.41846
3.76701
9.13079
5.50086
13.1299
6.55228
17.2978
7.42201
20.7413
8.40924
22.6779
10.1251
18.6483
11.7919
9.41012
13.2975
-2.24527
14.3235
-20.2588
15.0515
-47.4974
15.5609
-84.9979
15.0964
-117.258
13.194
-139.131
10.5466
-148.851
7.34498
-155.263
3.41348
-179.89
-7.90669
-8.97948
-8.35078
-8.85251
-8.43029
-8.37455
-8.43347
-7.83362
-7.97539
-6.76851
-6.91991
-4.80356
-5.34502
-1.44173
-3.58497
4.60594
-2.17454
9.63064
-0.282021
11.4675
2.00858
12.6231
4.36601
15.3162
5.82925
18.8905
6.55652
22.594
7.58535
25.2176
9.21731
21.2228
11.4245
11.2831
12.9514
-0.873162
14.1316
-19.3389
14.8034
-46.7398
15.4081
-85.3096
14.929
-118.993
13.1025
-141.687
10.4008
-151.907
7.24645
-159.096
3.31398
-183.204
-7.52452
-8.6319
-8.29054
-9.03972
-8.59886
-8.68395
-8.6791
-8.12892
-8.48092
-7.32808
-7.75943
-5.92898
-6.66279
-3.48579
-5.32751
0.300805
-4.15992
6.59131
-3.27676
12.6254
-2.13925
15.6153
0.303815
16.6853
2.98547
18.16
5.05069
20.3964
5.82807
24.3513
6.64901
27.7859
8.58979
24.0575
10.7634
13.4711
12.5898
0.66869
13.7977
-18.3333
14.6565
-45.9883
15.2725
-85.6531
14.8434
-120.734
12.9666
-144.253
10.2513
-154.911
7.10389
-162.886
3.22461
-186.429
-6.81678
-7.82788
-8.05235
-8.8701
-8.52244
-9.11613
-8.93106
-8.43198
-8.72773
-7.88211
-8.38854
-6.69897
-7.53475
-5.05702
-6.48616
-2.32714
-5.6143
1.75518
-4.68469
7.99924
-4.18565
14.6718
-3.39454
19.3137
-1.48494
21.1557
1.28924
21.9215
3.64064
22.5838
5.10294
25.8974
5.91977
30.4559
7.59322
27.2277
10.3069
15.754
12.1677
2.29874
13.5106
-17.1874
14.3601
-45.0758
15.1019
-85.9116
14.6899
-122.457
12.8739
-146.876
10.0698
-157.877
6.97926
-166.641
3.12251
-189.551
-5.72589
-6.32036
-7.53575
-8.34447
-8.28388
-9.10866
-9.01176
-9.03543
-8.98732
-8.17239
-8.73632
-7.53433
-8.1639
-6.06982
-7.25748
-4.2857
-6.5049
-1.43654
-5.85171
2.92219
-5.2138
9.02739
-4.86502
16.1423
-4.34058
22.1693
-3.288
25.7329
-0.864082
26.4262
1.68778
25.999
3.81757
27.9996
5.08189
32.9672
6.99902
30.5356
9.57482
18.3468
11.7636
4.04572
13.0747
-15.902
14.1207
-44.0947
14.9475
-86.1693
14.5827
-124.166
12.7118
-149.518
9.90218
-160.8
6.8191
-170.337
3.02347
-192.575
-4.53342
-3.77812
-6.55252
-7.30359
-7.86749
-8.76086
-8.77705
-9.34336
-9.27527
-8.74749
-8.93106
-7.97765
-8.60326
-7.09497
-7.79295
-5.53434
-7.11967
-3.67093
-6.56469
-0.723559
-6.12078
3.82918
-5.69119
9.85356
-5.34522
17.1469
-5.13935
24.0207
-4.66861
29.5374
-3.15529
31.2692
-0.753026
30.5696
1.94444
31.137
4.10102
35.8652
6.16078
33.9496
9.1669
20.9435
11.2797
5.84072
12.7178
-14.499
13.8378
-42.985
14.7888
-86.3754
14.4135
-125.868
12.6069
-152.223
9.71588
-163.697
6.65918
-173.973
2.91551
-195.49
-4.20621
-1.58174
-4.91393
-5.41672
-7.10094
-8.07014
-8.38377
-9.15414
-9.20269
-9.41594
-9.23985
-8.4387
-8.78719
-7.79372
-8.31751
-6.57041
-7.49315
-5.16086
-7.08642
-3.1492
-6.73458
-0.109759
-6.30925
4.44724
-5.81255
10.3209
-5.76698
17.7745
-5.8072
25.1593
-5.77001
32.1521
-5.27816
35.7944
-3.32708
35.8411
-0.366467
35.6045
2.76557
39.2605
5.60341
37.5131
8.57255
23.6506
10.9011
7.65737
12.2921
-12.9533
13.5684
-41.7646
14.5745
-86.5364
14.2997
-127.56
12.4601
-154.967
9.52029
-166.558
6.4747
-177.532
2.81523
-198.305
-4.26884
-1.31969
-3.90628
-2.58939
-5.82926
-6.6884
-7.70299
-8.75092
-8.87484
-9.482
-9.45729
-9.1985
-9.0484
-8.17749
-8.55882
-7.55241
-7.92882
-6.13474
-7.27212
-4.97516
-7.20752
-2.67627
-6.75605
0.337045
-6.26517
4.89986
-6.16108
10.715
-6.21732
18.1846
-6.64595
26.0352
-6.96488
33.8389
-7.0602
39.5275
-5.74741
41.222
-2.60829
40.9784
1.34489
43.519
4.90005
41.1856
8.22882
26.3229
10.5564
9.3931
11.9815
-11.3663
13.2538
-40.4439
14.4537
-86.6904
14.1657
-129.266
12.3336
-157.78
9.3214
-169.405
6.30134
-181.018
2.702
-201.007
-4.46561
-1.61924
-3.92539
-1.30058
-4.16137
-4.25728
-6.65313
-7.73826
-8.29249
-9.33326
-9.30172
-9.63756
-9.38235
-8.86456
-8.72104
-8.01528
-8.25288
-7.22834
-7.47052
-5.93635
-7.37299
-4.80968
-7.16871
-2.26361
-6.76157
0.83345
-6.60038
5.33916
-6.69755
11.1952
-7.15827
18.697
-7.74798
26.8183
-8.2293
35.008
-8.46458
42.2447
-7.62435
46.2381
-4.52627
46.8495
-0.0153532
48.4344
4.24534
45.1691
7.88215
28.9972
10.3702
11.0044
11.6297
-9.74221
13.0549
-39.0452
14.2504
-86.7751
14.0499
-130.982
12.1975
-160.656
9.13043
-172.234
6.09692
-184.413
2.59235
-203.6
-4.71277
-2.32972
-4.12895
-1.41568
-3.8421
-1.61984
-4.78543
-6.12498
-7.42453
-8.60622
-8.89522
-9.73977
-9.44792
-9.57198
-9.10613
-8.47946
-8.31422
-7.95394
-7.84495
-6.8539
-7.31414
-5.99521
-7.41231
-4.56608
-7.03673
-1.98845
-7.0162
1.24926
-7.13414
5.77575
-7.76183
11.7988
-8.28416
19.2331
-8.85699
27.446
-9.34423
35.8876
-9.5432
44.1635
-9.0578
50.7696
-6.06119
52.8954
-1.29165
53.9714
3.59786
49.4534
7.61012
31.7572
10.1941
12.4399
11.4464
-8.13367
12.7554
-37.5501
14.1344
-86.8595
13.9123
-132.697
12.0918
-163.617
8.92975
-175.067
5.89889
-187.72
2.47582
-206.075
-4.97785
-2.87534
-4.45634
-2.00233
-4.02377
-1.23402
-3.53954
-2.86573
-5.85325
-7.69626
-8.20596
-9.29548
-9.23499
-9.9527
-9.36842
-9.3097
-8.58614
-8.20754
-7.90949
-7.88941
-7.4565
-6.71154
-7.22296
-6.18456
-7.36405
-4.23876
-7.17868
-1.82597
-7.38994
1.50507
-8.11574
6.12966
-8.63897
12.1536
-9.14597
19.5221
-9.6969
27.7987
-10.2335
36.5779
-10.5194
45.6252
-10.0731
54.7815
-7.33107
58.9348
-2.42786
59.9971
2.97973
54.0838
7.36812
34.5832
10.1391
13.7472
11.2183
-6.59659
12.6866
-36.1023
13.9734
-86.9207
13.8279
-134.433
11.9652
-166.653
8.72327
-177.891
5.68374
-190.928
2.36677
-208.442
-5.29881
-3.45077
-4.78564
-2.54603
-4.41514
-1.61095
-3.78969
-0.983867
-3.43895
-5.28004
-7.19008
-8.71214
-8.72272
-9.80775
-9.31497
-10.0062
-9.00801
-8.88783
-7.95311
-8.16392
-7.53215
-7.81376
-7.14267
-6.79182
-7.37274
-6.17588
-7.40583
-4.0116
-7.32942
-1.88649
-8.26064
1.64997
-8.67771
6.16839
-9.10531
12.1129
-9.63027
19.4555
-10.1851
27.7502
-10.9801
37.0386
-11.2623
46.8144
-10.9396
58.39
-8.39726
64.9042
-3.52678
66.5036
2.37277
59.0791
7.11999
37.6023
10.0726
14.8929
11.2234
-5.13335
12.4479
-34.5768
13.8767
-86.9695
13.763
-136.231
11.8488
-169.778
8.52785
-180.735
5.48821
-194.049
2.25109
-210.693
-5.6143
-4.15221
-5.19332
-3.04309
-4.76565
-2.19553
-4.3136
-1.08704
-2.7192
-1.70361
-4.82405
-7.64606
-7.99529
-9.43957
-9.01678
-10.1059
-9.21471
-9.79946
-8.32289
-8.51805
-7.43961
-8.25646
-7.2141
-7.74233
-7.13093
-7.03363
-7.51862
-6.06309
-7.45303
-3.88799
-8.14148
-2.00565
-8.679
1.65125
-8.96882
6.03191
-9.31223
11.7949
-9.87098
19.1414
-10.604
27.3742
-11.5099
37.2861
-11.9304
47.8052
-11.6059
61.5987
-9.44895
70.8264
-4.52773
73.4041
1.66593
64.5332
6.87847
40.7965
10.083
16.0332
11.1077
-3.79316
12.457
-33.1571
13.9194
-87.1259
13.6759
-138.058
11.7408
-172.991
8.34004
-183.587
5.27593
-197.074
2.14397
-212.837
-5.89043
-4.88713
-5.6444
-3.70113
-5.12403
-2.68471
-4.80815
-1.70098
-3.18814
-0.618105
-2.3882
-4.13946
-6.65928
-8.98207
-8.523
-9.93335
-9.05386
-10.2668
-8.73422
-9.38813
-7.58019
-8.37747
-7.06444
-8.40612
-7.05382
-7.81944
-7.39141
-7.16084
-7.65551
-5.86061
-7.85066
-4.1788
-8.66247
-2.02218
-8.85611
1.53854
-9.12869
5.84837
-9.48468
11.4086
-10.2147
18.7521
-10.9556
26.8198
-11.9753
37.3311
-12.4093
48.6087
-12.1945
64.3442
-10.4034
76.702
-5.60948
80.6795
0.801032
70.6106
6.58507
44.2945
10.0647
17.0762
11.1837
-2.51986
12.4877
-31.7254
13.9059
-87.3559
13.6549
-139.972
11.6468
-176.298
8.15604
-186.467
5.08531
-200.015
2.03307
-214.87
-6.07592
-5.61209
-6.10742
-4.4241
-5.5203
-3.30486
-5.28042
-2.21244
-3.93109
-0.95803
-2.50782
-0.498487
-3.52316
-7.27558
-7.7581
-9.74698
-8.75474
-10.2325
-8.83305
-10.168
-8.01294
-8.95537
-6.91188
-8.53002
-6.96858
-8.49136
-7.13447
-8.07638
-7.47651
-7.33984
-7.7845
-5.92677
-8.31703
-4.52423
-8.89893
-1.97936
-8.97636
1.38621
-9.35273
5.71641
-9.91828
11.1122
-10.6593
18.4558
-11.467
26.3115
-12.3216
37.2434
-12.8218
49.236
-12.6919
66.6327
-11.3613
82.4539
-6.82301
88.3035
-0.34062
77.5363
6.17524
48.1839
10.1238
18.1361
11.267
-1.29914
12.668
-30.4875
14.1099
-87.8109
13.6632
-141.989
11.5477
-179.69
7.97813
-189.36
4.87358
-202.856
1.927
-216.797
-6.16413
-6.24122
-6.52877
-5.19074
-5.94103
-4.00337
-5.7756
-2.80968
-4.53196
-1.61157
-3.44594
-0.0199078
-0.836053
-3.18559
-6.1787
-8.85498
-8.28047
-10.2212
-8.68942
-10.3761
-8.38265
-9.79824
-7.11984
-8.74742
-6.66822
-8.83038
-6.93064
-8.69519
-7.19979
-8.35311
-7.70354
-7.4208
-8.05121
-6.19259
-8.64022
-4.78295
-9.01198
-1.94373
-9.17165
1.20513
-9.8737
5.67184
-10.4971
10.95
-11.3577
18.3465
-12.0337
26.0235
-12.7514
37.173
-13.2066
49.7506
-13.2867
68.5581
-12.248
87.8788
-8.21613
96.179
-1.70355
85.4151
5.53952
52.7682
10.066
19.337
11.5044
-0.135577
13.1582
-29.5358
14.429
-88.5767
13.647
-144.088
11.4512
-183.163
7.80668
-192.293
4.66598
-205.595
1.82708
-218.624
-6.16664
-6.72633
-6.82521
-5.94477
-6.41996
-4.71181
-6.24288
-3.53609
-5.16882
-2.17282
-4.11414
-0.943369
-1.08581
0.229849
-2.6597
-6.70459
-7.4052
-9.73025
-8.51424
-10.3964
-8.46447
-10.2943
-7.54417
-9.37391
-6.47904
-8.9366
-6.71791
-9.04311
-6.91603
-8.97895
-7.43708
-8.61957
-7.90879
-7.56322
-8.36356
-6.46925
-8.83536
-4.95957
-9.16085
-1.95453
-9.68993
1.02136
-10.4219
5.59658
-11.2677
10.86
-12.1064
18.4192
-12.7771
26.0492
-13.3254
37.2918
-13.85
50.3139
-13.9359
70.246
-13.1398
92.8024
-9.77226
104.248
-3.28412
94.2387
4.46808
58.3662
10.0218
20.8196
11.9626
1.06003
13.7641
-28.8708
14.8447
-89.7744
13.7473
-146.384
11.3416
-186.698
7.62543
-195.253
4.46033
-208.228
1.73369
-220.358
-6.14144
-7.05886
-6.93215
-6.61939
-6.91375
-5.45098
-6.7038
-4.25088
-5.7941
-2.91081
-4.8632
-1.42377
-2.34822
0.319046
0.0859566
-2.5158
-5.59059
-8.51921
-7.97164
-10.2728
-8.48219
-10.3787
-7.80593
-10.0325
-6.66836
-9.18459
-6.31897
-9.33553
-6.69633
-9.26281
-7.03077
-9.38526
-7.74308
-8.78528
-8.13022
-7.79655
-8.55409
-6.75052
-9.12222
-4.9982
-9.48813
-2.15633
-10.2351
0.83463
-11.1357
5.46459
-12.032
10.7857
-12.974
18.6161
-13.6079
26.3317
-14.2709
37.7128
-14.7075
51.0856
-14.7609
71.8672
-14.0622
97.0924
-11.3241
112.288
-5.0249
103.732
3.07137
65.3166
9.6608
23.1214
12.5046
2.31956
14.6819
-28.708
15.4867
-91.5139
13.9377
-148.98
11.229
-190.301
7.47651
-198.269
4.27239
-210.767
1.64891
-222.007
-6.13634
-7.23255
-6.86238
-7.12863
-7.3175
-6.21564
-7.19991
-4.95488
-6.40262
-3.64236
-5.5819
-2.19211
-3.25517
-0.516823
-0.581913
0.986916
-1.97065
-6.13575
-6.95562
-9.53522
-8.17366
-10.5814
-8.05174
-10.1329
-6.89095
-9.80993
-6.12562
-9.37794
-6.3659
-9.66597
-6.73123
-9.56235
-7.34548
-9.78286
-7.99844
-8.91706
-8.33638
-8.01426
-8.79139
-7.08135
-9.47015
-5.01618
-9.93696
-2.45449
-10.9094
0.608288
-11.848
5.28055
-12.8752
10.6869
-13.7828
18.791
-14.6738
26.7346
-15.4185
38.4237
-15.7855
52.1102
-15.7065
73.5115
-15.0783
100.847
-12.7287
119.991
-6.88941
113.693
1.25368
73.7237
9.17235
26.4536
13.0861
3.91534
15.7853
-29.0066
16.1981
-93.7743
14.2324
-151.984
11.1343
-193.959
7.30758
-201.304
4.09537
-213.213
1.58031
-223.587
-6.08207
-7.45036
-6.85012
-7.24481
-7.53809
-6.90805
-7.74983
-5.66572
-7.00419
-4.35331
-6.28489
-2.93938
-4.31461
-1.13267
-1.79633
0.697597
0.602919
-1.58665
-4.95744
-8.13393
-7.54155
-10.1673
-8.00916
-10.624
-7.24266
-9.78119
-6.06083
-9.87473
-6.02893
-9.7149
-6.39636
-10.0008
-6.9136
-9.99423
-7.70606
-10.0752
-8.23603
-9.01741
-8.50982
-8.29582
-9.19617
-7.35533
-9.81428
-5.13887
-10.5528
-2.81107
-11.5506
0.310905
-12.6731
5.0784
-13.6142
10.5183
-14.7263
18.8435
-15.8227
27.1389
-16.7116
39.3498
-17.0242
53.4279
-16.7977
75.2309
-16.0239
104.142
-13.9148
127.017
-8.67887
123.625
-0.715248
83.6113
8.22437
31.3154
13.6847
6.01598
16.9307
-29.7392
16.684
-96.2259
14.5215
-155.371
11.0307
-197.682
7.15876
-204.367
3.95517
-215.588
1.51404
-225.101
-5.98909
-7.36955
-6.80472
-7.49576
-7.49641
-7.28649
-8.27078
-6.3871
-7.61001
-5.0599
-6.98422
-3.65397
-5.26934
-1.98464
-2.65745
-0.271553
-0.117328
1.41784
-1.15109
-5.393
-6.46405
-9.21143
-7.61969
-10.5568
-7.50204
-10.3646
-6.17614
-9.66588
-5.67459
-10.2291
-6.15379
-9.95747
-6.49904
-10.4154
-7.27212
-10.4282
-8.03509
-10.2762
-8.40503
-9.1222
-8.81054
-8.68146
-9.6283
-7.54131
-10.2844
-5.40731
-11.1407
-3.22092
-12.3271
-0.0350282
-13.3755
4.83967
-14.4688
10.2608
-15.7355
18.7563
-16.9941
27.4213
-18.0859
40.4115
-18.4263
55.0565
-17.9299
77.1369
-16.932
107.159
-14.9377
133.276
-10.3498
133.26
-2.71573
94.5514
7.17351
37.8266
14.1844
8.76227
17.5793
-30.6345
17.086
-98.7905
14.8138
-159.154
10.936
-201.459
7.0232
-207.435
3.79905
-217.873
1.46225
-226.564
-5.81348
-7.05096
-6.7053
-7.46898
-7.54036
-7.4518
-8.50685
-7.05042
-8.27648
-5.72063
-7.66164
-4.38248
-6.23968
-2.68363
-3.75211
-0.889984
-1.23294
0.844062
1.33069
-1.06394
-4.21944
-7.63761
-6.86746
-9.96366
-7.30159
-10.7573
-6.58554
-9.95517
-5.39224
-9.94822
-5.74746
-10.6354
-6.20181
-10.2547
-6.79435
-10.8932
-7.68128
-10.782
-8.295
-10.3862
-8.62573
-9.30702
-9.19006
-9.1197
-10.1085
-7.71724
-10.726
-5.82205
-11.8601
-3.68799
-13.0043
-0.406247
-14.1335
4.50431
-15.3982
9.92356
-16.7893
18.5515
-18.2167
27.5521
-19.5928
41.5779
-19.8672
56.9938
-19.1355
79.3404
-17.8702
110.091
-15.8826
138.809
-11.7756
142.319
-4.52807
106.253
5.99355
46.0174
14.3511
11.9904
17.9997
-31.5482
17.3609
-101.338
14.9557
-163.174
10.8821
-205.318
6.87352
-210.51
3.67783
-220.089
1.41949
-227.983
-5.62349
-6.5111
-6.61229
-7.14397
-7.50471
-7.50463
-8.58576
-7.3729
-8.95438
-6.37252
-8.33704
-5.04522
-7.14842
-3.47375
-4.93157
-1.50417
-2.4973
0.374369
1.04788
1.12687
-0.549514
-4.73386
-5.60647
-8.8986
-6.74625
-10.519
-6.66062
-10.6822
-5.58096
-9.76646
-5.13786
-10.5578
-5.93484
-10.9024
-6.37751
-10.6715
-7.17842
-11.396
-8.1009
-10.9761
-8.49027
-10.5217
-8.88646
-9.61062
-9.68632
-9.54183
-10.5396
-7.90362
-11.2654
-6.4167
-12.5509
-4.14134
-13.6784
-0.861364
-14.9632
4.06935
-16.3628
9.49705
-17.898
18.2329
-19.6007
27.56
-21.0562
42.7669
-21.2872
59.1456
-20.4258
81.896
-18.9673
113.176
-16.8434
143.876
-13.0726
150.864
-6.11709
118.364
4.72386
55.6447
14.4408
15.5494
17.9961
-32.1834
17.4865
-103.868
15.1242
-167.416
10.7649
-209.21
6.73505
-213.567
3.55599
-222.225
1.38114
-229.364
-5.41226
-5.85039
-6.48967
-6.63372
-7.45117
-7.19751
-8.69531
-7.39508
-9.37955
-6.94773
-9.0619
-5.64766
-7.98569
-4.20795
-6.1208
-2.28451
-3.45507
-0.546396
-0.209029
1.63128
2.02975
-1.45239
-3.41904
-6.9213
-5.76061
-9.88424
-6.28496
-10.8947
-5.81345
-10.4497
-4.9072
-9.99712
-5.37385
-11.1188
-6.14304
-11.1368
-6.65132
-11.1986
-7.68788
-11.8091
-8.42072
-11.0456
-8.68917
-10.719
-9.28323
-10.0137
-10.1322
-9.94925
-11.026
-8.14309
-11.8077
-7.15988
-13.272
-4.54775
-14.3226
-1.50201
-15.8911
3.59764
-17.3088
8.90781
-19.1926
17.8248
-21.0387
27.5425
-22.4208
43.9005
-22.6761
61.3959
-21.8959
84.8246
-20.2243
116.557
-17.9335
148.737
-14.1818
158.929
-7.53113
130.619
3.69812
66.3873
14.0981
19.4473
18.0629
-32.7599
17.3489
-106.093
14.9577
-171.609
10.6771
-213.152
6.61055
-216.622
3.45089
-224.295
1.3513
-230.716
-5.16606
-4.99931
-6.32128
-6.01877
-7.38393
-6.70096
-8.69634
-7.19648
-9.62108
-7.15355
-9.81932
-6.19031
-8.7557
-4.87765
-7.31026
-3.01849
-4.67741
-1.06217
-1.7788
1.02337
2.59851
1.06251
-0.15564
-4.71578
-4.33036
-8.35155
-5.46941
-10.6998
-5.6663
-11.0418
-5.03611
-10.3208
-4.79456
-10.5764
-5.73861
-11.5232
-6.33026
-11.4579
-7.16218
-11.7243
-8.11699
-12.1128
-8.6374
-11.0974
-8.99345
-11.0087
-9.7096
-10.4363
-10.6016
-10.3736
-11.4472
-8.50361
-12.4812
-7.95062
-13.9006
-4.96977
-15.0879
-2.30516
-16.7653
3.05414
-18.3861
8.10131
-20.5846
17.3707
-22.433
27.5548
-23.6645
44.889
-24.0819
63.5819
-23.4634
88.0636
-21.6813
120.305
-19.0469
153.602
-15.1999
166.598
-8.64249
142.959
2.53543
77.95
13.8473
23.663
17.7199
-33.1309
16.1878
-107.323
14.9057
-175.837
10.5629
-217.104
6.46537
-219.636
3.34209
-226.286
1.32355
-232.039
-4.90028
-3.93621
-6.11633
-5.20426
-7.27904
-6.12367
-8.66431
-6.73299
-9.74944
-7.06811
-10.3301
-6.64281
-9.50025
-5.44576
-8.39471
-3.7932
-5.8994
-1.7965
-3.36893
0.52797
1.62443
1.99745
2.71924
-1.81236
-2.57203
-6.47412
-4.15828
-9.66269
-5.02349
-11.3426
-5.11309
-10.9648
-4.68265
-10.4327
-5.20822
-11.1068
-5.95376
-11.8997
-6.76146
-11.8586
-7.67417
-12.1672
-8.45123
-12.299
-8.87554
-11.2153
-9.35092
-11.3674
-10.1484
-10.8895
-10.9943
-10.8265
-11.9405
-9.04434
-13.1471
-8.70415
-14.5615
-5.49621
-15.8993
-3.17116
-17.6643
2.3323
-19.6065
7.12317
-21.9726
16.9103
-23.7254
27.6157
-24.8709
45.678
-25.4394
65.5579
-25.1144
91.4967
-23.2085
124.466
-20.2078
158.61
-16.1577
174.113
-9.65131
155.146
1.63573
90.1616
13.3438
28.0391
16.4224
-33.3655
15.1414
-107.559
14.579
-179.853
10.4228
-221.062
6.33586
-222.63
3.24635
-228.208
1.30826
-233.347
-4.66161
-2.85504
-5.89161
-4.16094
-7.13116
-5.35214
-8.56925
-6.21873
-9.80616
-6.67627
-10.6234
-6.77481
-10.2396
-5.9035
-9.36321
-4.47726
-7.1636
-2.529
-4.60445
-0.560979
0.0574088
2.09499
3.76706
0.949624
0.203722
-4.58811
-2.64534
-7.98706
-3.88677
-10.7994
-4.71695
-11.7387
-4.80286
-10.8446
-4.82708
-10.8138
-5.57999
-11.4806
-6.33296
-12.3282
-7.29102
-12.2418
-8.09351
-12.5249
-8.75649
-12.418
-9.14735
-11.4189
-9.73096
-11.7849
-10.54
-11.3438
-11.4224
-11.3446
-12.4495
-9.74187
-13.7985
-9.46711
-15.2783
-6.11723
-16.728
-4.10744
-18.6394
1.36518
-20.9208
6.07129
-23.2568
16.4418
-24.9098
27.6545
-26.0406
46.2792
-26.8511
67.2946
-26.7121
95.0003
-24.7395
128.998
-21.4077
163.86
-17.0837
181.545
-10.4348
167.217
0.675532
102.83
12.7203
31.7412
14.8993
-33.1234
14.3917
-107.371
14.1932
-183.624
10.2937
-225.019
6.19282
-225.576
3.15292
-230.053
1.27824
-234.626
-4.49395
-2.07855
-5.70531
-3.04133
-6.96122
-4.33088
-8.39577
-5.52561
-9.81468
-6.21022
-10.7841
-6.51558
-10.783
-6.23134
-10.201
-5.0657
-8.32766
-3.31321
-5.98849
-1.14497
-1.76544
1.26187
4.23216
1.6299
2.85606
-1.70271
-0.99936
-6.23409
-2.32318
-9.55064
-3.80529
-11.7111
-4.69303
-11.8486
-4.95201
-10.7197
-5.2664
-11.1274
-5.88458
-11.929
-6.85943
-12.7598
-7.76743
-12.5678
-8.46714
-12.8143
-9.04834
-12.517
-9.45089
-11.6989
-10.068
-12.2569
-10.9528
-11.8134
-11.8484
-11.9457
-12.9821
-10.5583
-14.4438
-10.3016
-16.0041
-6.84114
-17.5804
-5.16635
-19.728
0.172445
-22.2306
5.04506
-24.3774
15.9094
-25.9921
27.606
-27.3683
46.7964
-28.3004
68.8829
-28.2175
98.4784
-26.2011
133.791
-22.5422
169.319
-17.9632
189.073
-11.2579
179.15
-0.14985
115.7
11.9051
34.7354
13.795
-32.5266
13.4741
-106.652
13.7716
-187.102
10.1378
-228.964
6.06535
-228.489
3.09575
-231.871
1.26273
-235.888
-4.34688
-1.75553
-5.60763
-2.17623
-6.79174
-3.21081
-8.17738
-4.54927
-9.69286
-5.64742
-10.8902
-6.10412
-11.0934
-6.20521
-10.9172
-5.51514
-9.43641
-3.95695
-7.33944
-1.96226
-3.81064
0.900223
3.42427
2.06976
5.06323
-0.57727
1.72216
-4.42423
-0.558657
-7.99862
-2.52135
-10.8346
-4.08803
-12.3161
-5.17053
-11.6301
-5.26001
-10.7261
-5.54785
-11.4641
-6.38654
-12.4018
-7.39305
-13.1342
-8.1984
-12.8366
-8.79767
-13.0649
-9.35319
-12.6147
-9.7094
-12.0576
-10.4104
-12.7993
-11.3597
-12.302
-12.2842
-12.6436
-13.5663
-11.4358
-15.0908
-11.2149
-16.7257
-7.69591
-18.4966
-6.39773
-20.893
-1.16519
-23.3867
4.05431
-25.3306
15.2479
-27.1829
27.4206
-28.8621
47.3581
-29.828
70.4934
-29.6368
101.914
-27.4466
138.696
-23.6009
174.956
-18.9339
196.749
-11.9269
190.927
-0.929446
128.535
11.2092
37.3212
12.5634
-31.616
12.5373
-105.418
13.3653
-190.329
10.0336
-232.933
5.91804
-231.311
3.0207
-233.629
1.24561
-237.134
-4.21946
-1.59421
-5.55469
-1.80847
-6.64752
-2.32046
-7.95543
-3.43276
-9.41992
-4.82221
-10.8904
-5.64713
-11.2983
-5.8992
-11.384
-5.73837
-10.357
-4.59454
-8.5313
-2.76509
-5.67687
-0.0960211
1.93369
2.3908
6.73648
0.396504
4.07579
-2.93091
1.39435
-6.37723
-0.967156
-9.55281
-3.06821
-11.8544
-4.93325
-12.5534
-5.70984
-11.1802
-5.4875
-10.7864
-5.91732
-11.9334
-6.99851
-12.7964
-7.86158
-13.471
-8.57741
-13.0568
-9.12853
-13.2896
-9.58925
-12.7349
-9.95967
-12.5083
-10.7361
-13.4229
-11.7585
-12.8277
-12.7488
-13.461
-14.2074
-12.3192
-15.7154
-12.2252
-17.4784
-8.71415
-19.4508
-7.83992
-22.0366
-2.51528
-24.3115
3.03518
-26.3344
14.3995
-28.5324
27.0909
-30.4851
48.0151
-31.4082
72.2648
-30.8622
105.33
-28.5114
143.606
-24.6759
180.698
-19.7862
204.609
-12.6651
202.663
-1.60372
141.347
10.5013
39.3833
11.4425
-30.5211
11.6474
-103.7
12.8448
-193.14
9.86485
-236.879
5.79396
-234.084
2.95584
-235.339
1.19683
-238.331
-4.08812
-1.44493
-5.50694
-1.64196
-6.53754
-1.91845
-7.77099
-2.5049
-9.06366
-3.78902
-10.6895
-5.02311
-11.4371
-5.5083
-11.6337
-5.64953
-11.0785
-5.01692
-9.61694
-3.5089
-7.00563
-1.43633
-0.244736
2.08241
7.50984
1.61744
6.04165
-1.56935
3.2461
-4.78266
0.825206
-8.1696
-1.72072
-10.9003
-4.41444
-12.3732
-5.98822
-12.275
-5.93393
-10.7338
-5.63953
-11.0642
-6.53783
-12.394
-7.48702
-13.171
-8.2855
-13.7629
-8.94791
-13.2375
-9.38306
-13.4958
-9.80362
-12.8909
-10.1799
-13.0645
-11.0808
-14.1006
-12.1356
-13.4409
-13.2728
-14.3957
-14.8362
-13.1984
-16.3405
-13.363
-18.2794
-9.88557
-20.4451
-9.4314
-23.0074
-3.81941
-25.154
1.85481
-27.491
13.3581
-30.047
26.6528
-32.1442
48.7511
-32.8421
74.2446
-31.9637
108.782
-29.5526
148.483
-25.5937
186.506
-20.754
212.698
-13.3606
214.42
-2.16816
154.017
9.96971
40.8561
10.4068
-29.2805
10.6723
-101.528
12.2459
-195.521
9.75509
-240.841
5.66032
-236.789
2.9002
-237.042
1.1922
-239.523
-3.95288
-1.27929
-5.44621
-1.50566
-6.45375
-1.72575
-7.64082
-2.04861
-8.8058
-2.76275
-10.2715
-4.2071
-11.409
-5.05129
-11.7918
-5.35025
-11.4936
-5.23443
-10.5148
-4.11908
-8.30557
-2.20897
-2.67962
0.998552
7.29731
2.29493
7.71138
-0.0522855
4.8817
-3.20494
2.63643
-6.59388
-0.12884
-9.76148
-3.59393
-11.7208
-5.91626
-12.4452
-6.67438
-11.5345
-5.86335
-10.51
-6.04798
-11.5541
-7.14157
-12.7395
-7.90626
-13.5502
-8.71859
-13.9922
-9.23308
-13.3874
-9.60189
-13.6975
-9.94144
-13.1294
-10.448
-13.6974
-11.4193
-14.8169
-12.5308
-14.1829
-13.8116
-15.4202
-15.4262
-14.1127
-17.0205
-14.6219
-19.1028
-11.2279
-21.3939
-11.0448
-23.8551
-5.11837
-26.0428
0.406609
-28.8632
12.1743
-31.6451
26.1537
-33.5758
49.4849
-34.084
76.3649
-33.0653
112.295
-30.4029
153.292
-26.5698
192.322
-21.6658
221.003
-14.007
226.258
-2.57818
166.565
9.4682
41.7946
9.08216
-27.6904
10.3862
-99.6679
11.6738
-197.44
9.59992
-244.78
5.55219
-239.441
2.82696
-238.677
1.19934
-240.722
-3.82412
-1.11798
-5.38283
-1.34268
-6.40421
-1.5552
-7.54516
-1.82142
-8.66709
-2.18733
-9.80053
-3.23368
-11.1646
-4.45143
-11.8586
-4.98442
-11.6758
-5.16801
-11.1737
-4.57551
-9.52481
-2.89983
-5.20053
0.311935
5.77189
2.52398
8.70009
1.30622
6.09996
-1.27055
4.22614
-4.79466
1.5593
-8.28202
-2.52109
-10.8343
-5.70832
-11.9287
-7.0079
-12.1116
-6.72496
-10.6729
-5.93831
-10.6196
-6.73622
-11.9594
-7.53416
-13.1116
-8.356
-13.9128
-9.08808
-14.1372
-9.44681
-13.5425
-9.73552
-13.9034
-10.0941
-13.4832
-10.7153
-14.4014
-11.8004
-15.5473
-12.9283
-15.0662
-14.3481
-16.4983
-15.9975
-15.1357
-17.7483
-15.9764
-19.8934
-12.7284
-22.2902
-12.6097
-24.5935
-6.56766
-27.1282
-1.32843
-30.3812
10.9105
-33.0729
25.6507
-34.765
50.166
-35.1896
78.4892
-33.91
115.802
-31.3187
158.041
-27.5002
198.156
-22.5095
229.505
-14.5607
238.241
-2.8217
178.855
9.03125
41.8456
8.74721
-26.0514
10.1272
-98.1212
11.1033
-198.944
9.49539
-248.723
5.45912
-242.073
2.75754
-240.235
1.2054
-241.928
-3.70484
-1.01368
-5.31864
-1.18217
-6.37005
-1.37684
-7.48878
-1.61158
-8.56812
-1.92038
-9.54924
-2.43862
-10.6445
-3.75379
-11.7533
-4.55676
-11.7469
-4.91333
-11.5485
-4.79321
-10.4454
-3.65492
-7.56722
-0.533136
3.67755
2.40627
8.80388
2.42019
7.18515
0.221032
5.12568
-2.17009
2.85694
-6.09231
-1.20334
-9.59976
-5.34858
-11.1941
-7.15114
-11.7855
-7.48618
-11.3504
-6.41068
-10.2005
-6.35682
-10.999
-7.19433
-12.2992
-7.95881
-13.5088
-8.78273
-14.2181
-9.37206
-14.212
-9.55476
-13.7233
-9.85526
-14.1423
-10.2302
-13.9684
-11.0496
-15.1522
-12.1494
-16.3262
-13.3868
-16.0276
-14.858
-17.6379
-16.6122
-16.2717
-18.4543
-17.4155
-20.687
-14.3317
-23.0495
-14.1537
-25.3984
-8.29743
-28.4244
-3.28522
-31.7835
9.62111
-34.2892
25.1749
-35.7789
50.7553