/*--------------------------------*- C++ -*----------------------------------*\
| =========                 |                                                 |
| \\      /  F ield         | OpenFOAM: The Open Source CFD Toolbox           |
|  \\    /   O peration     | Version:  2212                                  |
|   \\  /    A nd           | Website:  www.openfoam.com                      |
|    \\/     M anipulation  |                                                 |
\*---------------------------------------------------------------------------*/
FoamFile
{
    version     2.0;
    format      ascii;
    arch        "LSB;label=32;scalar=64";
    class       volScalarField;
    location    "0";
    object      k;
}
// * * * * * * * * * * * * * * * * * * * * * * * * * * * * * * * * * * * * * //

dimensions      [0 2 -2 0 0 0 0];

internalField   nonuniform List<scalar> 
82540
(
1.23952e-05
2.03363e-06
1.27556e-05
2.20091e-06
1.91539e-06
1.31416e-05
1.28685e-06
1.91768e-06
1.75644e-06
1.35718e-05
1.81381e-06
1.23123e-06
1.68366e-06
1.61563e-06
1.40435e-05
7.10422e-05
1.60213e-06
1.15547e-06
1.49215e-06
1.43346e-06
1.45501e-05
0.000738199
6.08279e-05
1.42876e-06
1.13275e-06
1.3356e-06
1.28188e-06
1.50939e-05
0.00089676
0.000629853
5.07804e-05
1.3049e-06
1.07803e-06
1.20889e-06
1.11195e-06
1.56598e-05
0.000940469
0.000748039
0.000514136
4.18449e-05
1.20681e-06
1.0621e-06
1.10689e-06
9.76271e-07
1.62717e-05
0.000250076
0.000803083
0.00059359
0.000408828
3.37944e-05
1.15037e-06
1.03475e-06
1.02032e-06
8.4585e-07
1.69127e-05
7.40521e-05
0.000272471
0.00065539
0.000450697
0.000308502
2.7266e-05
1.11082e-06
1.01358e-06
9.49445e-07
7.45342e-07
1.75852e-05
3.49147e-05
2.1056e-05
8.52495e-05
0.000282558
0.000511784
0.000327304
0.000229796
2.18712e-05
1.09104e-06
1.00314e-06
8.91482e-07
6.66379e-07
1.82796e-05
6.30906e-05
9.14554e-05
3.14196e-05
2.33601e-05
9.61581e-05
0.000291075
0.000386539
0.000228788
0.000162276
1.79431e-05
1.07828e-06
9.82913e-07
8.3416e-07
6.05256e-07
1.90294e-05
2.04762e-06
7.18721e-06
5.48883e-05
7.97108e-05
2.83553e-05
2.60493e-05
0.000108031
0.00029514
0.000280913
0.000155667
0.000116361
1.49298e-05
1.07582e-06
9.76504e-07
7.9692e-07
5.72143e-07
1.97866e-05
3.53456e-05
1.37838e-05
2.36979e-06
6.89586e-06
4.68681e-05
6.8601e-05
2.55135e-05
2.90711e-05
0.000120924
0.000297326
0.00020345
0.000106337
8.29324e-05
1.29718e-05
1.07533e-06
9.59579e-07
7.47482e-07
5.46362e-07
2.05729e-05
1.55185e-05
3.74004e-05
1.45964e-05
2.56653e-06
6.30737e-06
3.93277e-05
5.82618e-05
2.28227e-05
3.26556e-05
0.000132658
0.000292731
0.000145986
7.54485e-05
6.39049e-05
1.14096e-05
1.07301e-06
9.5476e-07
7.22419e-07
5.39088e-07
2.14089e-05
8.67289e-06
1.64141e-05
3.77488e-05
1.53893e-05
2.9774e-06
5.64421e-06
3.22913e-05
4.88653e-05
2.09459e-05
3.67773e-05
0.000145241
0.000286922
0.000110336
5.80694e-05
5.22408e-05
1.04667e-05
1.06844e-06
9.4156e-07
6.82905e-07
5.34862e-07
2.22554e-05
5.72535e-06
9.26329e-06
1.72584e-05
3.91441e-05
1.64346e-05
3.23035e-06
5.10957e-06
2.59908e-05
4.04814e-05
1.96587e-05
4.14276e-05
0.000156543
0.00027527
9.1132e-05
4.94774e-05
4.61638e-05
9.50399e-06
1.07114e-06
9.36672e-07
6.64772e-07
5.34312e-07
2.31382e-05
4.72334e-06
6.22962e-06
9.8254e-06
1.80877e-05
4.05318e-05
1.71931e-05
3.7714e-06
4.65766e-06
2.04569e-05
3.32087e-05
1.89022e-05
4.65845e-05
0.00016583
0.000266685
8.59224e-05
4.54686e-05
4.12834e-05
8.87465e-06
1.07393e-06
9.26892e-07
6.38033e-07
5.32569e-07
2.40563e-05
4.84722e-06
5.16096e-06
6.73225e-06
1.03676e-05
1.88531e-05
4.24296e-05
1.83534e-05
4.11321e-06
4.27179e-06
1.57243e-05
2.69188e-05
1.87877e-05
5.2171e-05
0.000173098
0.000259268
8.42534e-05
4.34409e-05
3.67989e-05
8.00079e-06
1.07583e-06
9.23609e-07
6.26172e-07
5.30413e-07
2.5023e-05
3.94295e-06
5.22087e-06
5.60872e-06
7.22147e-06
1.08717e-05
1.96136e-05
4.27667e-05
1.90956e-05
4.88538e-06
4.04024e-06
1.19064e-05
2.14347e-05
1.86728e-05
5.79759e-05
0.000174608
0.000254063
8.36342e-05
4.1664e-05
3.10609e-05
7.32952e-06
1.08896e-06
9.13825e-07
6.13496e-07
5.29346e-07
2.6037e-05
2.35045e-06
4.30253e-06
5.58078e-06
6.05102e-06
7.69155e-06
1.13449e-05
2.03738e-05
4.45641e-05
2.05528e-05
5.51533e-06
3.95765e-06
8.99586e-06
1.6778e-05
1.8607e-05
6.3977e-05
0.000176328
0.000250382
8.4446e-05
3.84603e-05
2.53049e-05
6.39916e-06
1.0954e-06
9.0952e-07
6.09056e-07
5.2631e-07
2.70973e-05
1.37874e-06
2.53539e-06
4.67078e-06
5.93367e-06
6.47098e-06
8.1165e-06
1.17852e-05
2.10984e-05
4.68954e-05
2.11676e-05
6.61768e-06
3.96945e-06
6.97269e-06
1.2992e-05
1.85955e-05
6.99078e-05
0.000176232
0.000242721
8.359e-05
3.58313e-05
1.96775e-05
5.68151e-06
1.0999e-06
9.00176e-07
6.07656e-07
5.23818e-07
2.82094e-05
1.04244e-06
1.40157e-06
2.75753e-06
5.04088e-06
6.25789e-06
6.86879e-06
8.50968e-06
1.22043e-05
2.19083e-05
4.4556e-05
2.22078e-05
7.9388e-06
3.97045e-06
5.49089e-06
1.00822e-05
1.88549e-05
7.54464e-05
0.000176562
0.000230211
8.39863e-05
3.14146e-05
1.48691e-05
4.74898e-06
1.11054e-06
8.95986e-07
6.07626e-07
5.20991e-07
2.93727e-05
1.08578e-06
1.066e-06
1.43545e-06
2.9979e-06
5.40096e-06
6.56758e-06
7.21707e-06
8.83981e-06
1.26151e-05
2.27761e-05
4.46828e-05
2.33001e-05
9.3657e-06
4.04536e-06
4.47028e-06
7.99195e-06
1.96331e-05
8.05895e-05
0.000176928
0.000212695
8.07925e-05
2.82118e-05
1.09143e-05
4.13983e-06
1.11353e-06
8.87155e-07
6.08115e-07
5.17257e-07
3.05794e-05
1.77291e-06
1.13252e-06
1.09781e-06
1.50754e-06
3.24727e-06
5.74991e-06
6.82765e-06
7.53569e-06
9.13821e-06
1.30311e-05
2.3591e-05
4.56024e-05
2.40349e-05
1.12106e-05
4.21264e-06
3.62761e-06
6.53838e-06
2.09087e-05
8.50596e-05
0.00017662
0.000189274
7.95198e-05
2.35907e-05
7.76125e-06
3.29746e-06
1.11618e-06
8.82285e-07
6.11369e-07
5.15367e-07
3.18378e-05
2.31923e-06
1.89323e-06
1.18227e-06
1.16076e-06
1.5925e-06
3.49794e-06
6.07394e-06
7.06575e-06
7.78506e-06
9.3745e-06
1.34858e-05
2.4438e-05
4.44998e-05
2.53834e-05
1.31956e-05
4.52647e-06
3.03918e-06
5.56672e-06
2.23624e-05
8.8618e-05
0.000172861
0.000165196
7.54192e-05
2.05932e-05
6.20035e-06
2.89539e-06
1.11581e-06
8.76582e-07
6.18785e-07
5.12466e-07
3.31571e-05
2.4161e-06
2.50289e-06
2.00838e-06
1.24462e-06
1.22118e-06
1.70376e-06
3.75192e-06
6.37702e-06
7.25397e-06
8.01738e-06
9.59059e-06
1.39848e-05
2.53429e-05
4.63435e-05
2.60629e-05
1.50913e-05
5.14997e-06
2.8297e-06
4.96157e-06
2.38621e-05
9.0884e-05
0.000165779
0.000144442
7.27645e-05
1.63982e-05
4.67796e-06
2.29538e-06
1.11346e-06
8.73244e-07
6.31912e-07
5.11622e-07
3.4548e-05
2.80406e-06
2.57071e-06
2.68532e-06
2.11372e-06
1.30249e-06
1.28949e-06
1.80455e-06
3.99808e-06
6.64813e-06
7.43378e-06
8.17948e-06
9.76695e-06
1.4578e-05
2.61738e-05
4.7033e-05
2.71224e-05
1.75162e-05
5.86024e-06
2.69638e-06
4.65208e-06
2.52999e-05
9.12707e-05
0.00015639
0.000126083
6.68008e-05
1.38515e-05
4.39335e-06
2.10358e-06
1.109e-06
8.72122e-07
6.5011e-07
5.11193e-07
3.60123e-05
4.42612e-06
2.90333e-06
2.71989e-06
2.8608e-06
2.20264e-06
1.36941e-06
1.35172e-06
1.89755e-06
4.23426e-06
6.89427e-06
7.57806e-06
8.34769e-06
9.93415e-06
1.52795e-05
2.70604e-05
4.60334e-05
2.85822e-05
1.93114e-05
6.69198e-06
2.64905e-06
4.55372e-06
2.69612e-05
9.04095e-05
0.000145325
0.000110617
6.24842e-05
1.07003e-05
3.77726e-06
1.8159e-06
1.10012e-06
8.71624e-07
6.74792e-07
5.11064e-07
3.75629e-05
8.7364e-06
4.45601e-06
2.99429e-06
2.8583e-06
3.02153e-06
2.27508e-06
1.42558e-06
1.40658e-06
1.97756e-06
4.45056e-06
7.11089e-06
7.73304e-06
8.45406e-06
1.00945e-05
1.61598e-05
2.78288e-05
4.7075e-05
2.98151e-05
2.15674e-05
7.8028e-06
2.7084e-06
4.52668e-06
2.83196e-05
8.82733e-05
0.000132853
9.64939e-05
5.55448e-05
8.94954e-06
3.73166e-06
1.77552e-06
1.08678e-06
8.7215e-07
7.05718e-07
5.10801e-07
3.91808e-05
9.46419e-06
8.67145e-06
4.48426e-06
3.07714e-06
2.97914e-06
3.15567e-06
2.32581e-06
1.48362e-06
1.4623e-06
2.0551e-06
4.65578e-06
7.30545e-06
7.87202e-06
8.58657e-06
1.0256e-05
1.71955e-05
2.85081e-05
4.85821e-05
3.13757e-05
2.35385e-05
8.92215e-06
2.7183e-06
4.59639e-06
2.85301e-05
8.51068e-05
0.000119474
8.42824e-05
5.2564e-05
7.18909e-06
3.56659e-06
1.71703e-06
1.06946e-06
8.72553e-07
7.45129e-07
5.11168e-07
4.08973e-05
8.29532e-06
9.23893e-06
8.64626e-06
4.48826e-06
3.14857e-06
3.08201e-06
3.26183e-06
2.3595e-06
1.53471e-06
1.51086e-06
2.11994e-06
4.8347e-06
7.48069e-06
8.03066e-06
8.66804e-06
1.04368e-05
1.83571e-05
2.91026e-05
4.76744e-05
3.24617e-05
2.53655e-05
1.02337e-05
2.78843e-06
4.73031e-06
2.83068e-05
8.0944e-05
0.000105603
7.33408e-05
4.78002e-05
6.40115e-06
3.55763e-06
1.70812e-06
1.04887e-06
8.75415e-07
7.92448e-07
5.12341e-07
4.27243e-05
4.86653e-06
8.03518e-06
8.90542e-06
8.33404e-06
4.52371e-06
3.20924e-06
3.16761e-06
3.34775e-06
2.37664e-06
1.58365e-06
1.55717e-06
2.17145e-06
4.98885e-06
7.63785e-06
8.18637e-06
8.7915e-06
1.06173e-05
1.95292e-05
2.96883e-05
4.93418e-05
3.35937e-05
2.71259e-05
1.1794e-05
2.88269e-06
4.97728e-06
2.78212e-05
7.59708e-05
9.17059e-05
6.36249e-05
4.61389e-05
5.92858e-06
3.55604e-06
1.70111e-06
1.02749e-06
8.82887e-07
8.50812e-07
5.15891e-07
4.46826e-05
2.79877e-06
4.76553e-06
7.58628e-06
8.45735e-06
7.84785e-06
4.51722e-06
3.25643e-06
3.23771e-06
3.41464e-06
2.38744e-06
1.6285e-06
1.60729e-06
2.22168e-06
5.12318e-06
7.78805e-06
8.35516e-06
8.87426e-06
1.08336e-05
2.06936e-05
3.00907e-05
5.05077e-05
3.49561e-05
2.9138e-05
1.3168e-05
3.13929e-06
5.23015e-06
2.71755e-05
7.02572e-05
7.84984e-05
5.56517e-05
4.49692e-05
5.89031e-06
3.57572e-06
1.697e-06
1.00886e-06
8.96876e-07
9.192e-07
5.24607e-07
4.67243e-05
1.7419e-06
2.57407e-06
4.29341e-06
7.04087e-06
7.91185e-06
7.31104e-06
4.50991e-06
3.28898e-06
3.29361e-06
3.46694e-06
2.39723e-06
1.6751e-06
1.65054e-06
2.25425e-06
5.22484e-06
7.92553e-06
8.53303e-06
8.99583e-06
1.1031e-05
2.17716e-05
3.04887e-05
4.84894e-05
3.67413e-05
3.05325e-05
1.49532e-05
3.36135e-06
5.51112e-06
2.63962e-05
6.41892e-05
6.62898e-05
4.94713e-05
4.39179e-05
5.84448e-06
3.58892e-06
1.69349e-06
9.98608e-07
9.18384e-07
1.00092e-06
5.40058e-07
4.89057e-05
1.65522e-06
2.34525e-06
3.82943e-06
6.41262e-06
7.30014e-06
6.72672e-06
4.56199e-06
3.30948e-06
3.33766e-06
3.50398e-06
2.40797e-06
1.71688e-06
1.70234e-06
2.2879e-06
5.31265e-06
8.06395e-06
8.70411e-06
9.08661e-06
1.12652e-05
2.2756e-05
3.07907e-05
4.81418e-05
3.73566e-05
3.24447e-05
1.65377e-05
3.75937e-06
5.84392e-06
2.54783e-05
5.79783e-05
5.53604e-05
4.71073e-05
4.4491e-05
5.84896e-06
3.68189e-06
1.68964e-06
9.98019e-07
9.48548e-07
1.09491e-06
5.66596e-07
5.12399e-05
1.34167e-06
1.56752e-06
2.16764e-06
3.3916e-06
5.73995e-06
6.65155e-06
6.13046e-06
4.48687e-06
3.31726e-06
3.37131e-06
3.52744e-06
2.41866e-06
1.764e-06
1.74941e-06
2.30778e-06
5.37026e-06
8.18777e-06
8.89724e-06
9.19754e-06
1.14559e-05
2.3592e-05
3.11627e-05
4.54433e-05
3.86607e-05
3.37767e-05
1.84167e-05
4.17908e-06
5.9626e-06
2.43075e-05
5.19421e-05
4.6161e-05
4.61323e-05
4.42602e-05
5.85548e-06
3.82918e-06
1.69383e-06
1.00159e-06
9.89565e-07
1.20292e-06
6.07409e-07
5.37423e-05
1.29122e-06
1.31182e-06
1.49267e-06
1.98674e-06
3.01961e-06
5.03737e-06
5.9623e-06
5.48773e-06
4.39319e-06
3.29781e-06
3.39897e-06
3.53682e-06
2.42784e-06
1.80602e-06
1.80227e-06
2.32964e-06
5.42105e-06
8.30999e-06
9.05813e-06
9.29088e-06
1.16726e-05
2.42638e-05
3.04374e-05
4.39134e-05
3.94686e-05
3.5662e-05
2.02046e-05
4.57171e-06
6.1743e-06
2.29111e-05
4.61897e-05
3.83389e-05
5.04872e-05
4.45218e-05
5.87432e-06
3.98768e-06
1.69539e-06
1.004e-06
1.04438e-06
1.32367e-06
6.67005e-07
5.64422e-05
1.27561e-06
1.27898e-06
1.42004e-06
1.82249e-06
2.67211e-06
4.36186e-06
5.27921e-06
4.90073e-06
4.21462e-06
3.25864e-06
3.41785e-06
3.53101e-06
2.4331e-06
1.85107e-06
1.85113e-06
2.34153e-06
5.44153e-06
8.41701e-06
9.25425e-06
9.38287e-06
1.18306e-05
2.47459e-05
2.93434e-05
4.26088e-05
4.06617e-05
3.72847e-05
2.19465e-05
5.11785e-06
6.0965e-06
2.12556e-05
4.08727e-05
3.20241e-05
6.00059e-05
4.42883e-05
5.9265e-06
4.12036e-06
1.68774e-06
1.0043e-06
1.11553e-06
1.45639e-06
7.47672e-07
5.9298e-05
1.28651e-06
1.25917e-06
1.25413e-06
1.35279e-06
1.65392e-06
2.34266e-06
3.72546e-06
4.62333e-06
4.28846e-06
3.81559e-06
3.19963e-06
3.43314e-06
3.50933e-06
2.43695e-06
1.89024e-06
1.90259e-06
2.35703e-06
5.47718e-06
8.52152e-06
9.39678e-06
9.48224e-06
1.20037e-05
2.50882e-05
2.88122e-05
4.21063e-05
4.16516e-05
3.92836e-05
2.34877e-05
5.44991e-06
5.97402e-06
1.94692e-05
3.5926e-05
2.68494e-05
6.5406e-05
4.21556e-05
5.98935e-06
4.19714e-06
1.69254e-06
1.00987e-06
1.209e-06
1.59837e-06
8.53194e-07
6.23428e-05
1.31117e-06
1.27198e-06
1.24241e-06
1.22587e-06
1.29125e-06
1.52247e-06
2.06056e-06
3.17058e-06
4.00165e-06
3.80642e-06
3.42385e-06
3.12335e-06
3.44e-06
3.47243e-06
2.43768e-06
1.92736e-06
1.94764e-06
2.36839e-06
5.50662e-06
8.61202e-06
9.59321e-06
9.579e-06
1.21271e-05
2.52988e-05
2.84751e-05
4.16818e-05
4.40718e-05
4.17575e-05
2.51249e-05
6.00873e-06
5.81432e-06
1.76386e-05
3.14589e-05
2.28307e-05
8.62572e-05
4.1416e-05
6.0675e-06
4.20155e-06
1.68794e-06
1.0218e-06
1.3281e-06
1.74643e-06
9.83703e-07
6.55115e-05
1.36169e-06
1.29619e-06
1.25604e-06
1.22517e-06
1.20128e-06
1.23682e-06
1.3997e-06
1.8034e-06
2.68739e-06
3.4759e-06
3.37018e-06
3.11306e-06
3.03917e-06
3.40501e-06
3.41885e-06
2.43708e-06
1.95747e-06
1.99123e-06
2.38376e-06
5.34381e-06
8.69145e-06
9.71421e-06
9.72937e-06
1.22571e-05
2.47029e-05
2.84651e-05
4.22917e-05
4.71608e-05
4.428e-05
2.64578e-05
6.33851e-06
5.58514e-06
1.5835e-05
2.74248e-05
1.9687e-05
0.00017311
3.93985e-05
6.15243e-06
4.18532e-06
1.69058e-06
1.05566e-06
1.47842e-06
1.89563e-06
1.14147e-06
6.87596e-05
1.76934e-06
1.4574e-06
1.3482e-06
1.28029e-06
1.23958e-06
1.20699e-06
1.18159e-06
1.19659e-06
1.29915e-06
1.59951e-06
2.26717e-06
3.01552e-06
3.04769e-06
2.95193e-06
2.95066e-06
3.34187e-06
3.34933e-06
2.43923e-06
1.98088e-06
2.02751e-06
2.39885e-06
5.19705e-06
8.76163e-06
9.88412e-06
9.89779e-06
1.23637e-05
2.37778e-05
2.84483e-05
4.23358e-05
5.08647e-05
4.78354e-05
2.8142e-05
6.89367e-06
5.37149e-06
1.41195e-05
2.38327e-05
1.73593e-05
0.000336983
3.80756e-05
6.26187e-06
4.16154e-06
1.68888e-06
1.11147e-06
1.6632e-06
2.04055e-06
1.3232e-06
7.19972e-05
3.64011e-06
1.98747e-06
1.77187e-06
1.45373e-06
1.33681e-06
1.26276e-06
1.22126e-06
1.18987e-06
1.16007e-06
1.15649e-06
1.22889e-06
1.43906e-06
1.96285e-06
2.66874e-06
2.80844e-06
2.77314e-06
2.85816e-06
3.27147e-06
3.26476e-06
2.43678e-06
1.99754e-06
2.05906e-06
2.4186e-06
5.12261e-06
8.8197e-06
9.97245e-06
1.01383e-05
1.24538e-05
2.34809e-05
2.82593e-05
4.10547e-05
5.61729e-05
5.09739e-05
2.94399e-05
7.19211e-06
5.07548e-06
1.25035e-05
2.06624e-05
1.55541e-05
0.000594615
3.48308e-05
6.42796e-06
4.15815e-06
1.69651e-06
1.1918e-06
1.88511e-06
2.17481e-06
1.52369e-06
7.50849e-05
3.72209e-06
3.27173e-06
2.11937e-06
2.02907e-06
1.77963e-06
1.44778e-06
1.322e-06
1.24489e-06
1.20312e-06
1.17005e-06
1.14193e-06
1.12985e-06
1.15385e-06
1.32627e-06
1.7864e-06
2.40959e-06
2.62045e-06
2.69023e-06
2.77792e-06
3.19774e-06
3.16908e-06
2.42908e-06
2.01197e-06
2.08662e-06
2.44023e-06
5.03293e-06
8.87778e-06
1.01036e-05
1.005e-05
1.25572e-05
2.34555e-05
2.83757e-05
4.11242e-05
6.01934e-05
5.42982e-05
3.10475e-05
7.73661e-06
4.82157e-06
1.10171e-05
1.79377e-05
1.41752e-05
0.000944302
3.19561e-05
6.64222e-06
4.20329e-06
1.70122e-06
1.29759e-06
2.14444e-06
2.29223e-06
1.72951e-06
7.78544e-05
3.84804e-06
3.4367e-06
3.06536e-06
2.22106e-06
2.19711e-06
2.07648e-06
1.78738e-06
1.47076e-06
1.3077e-06
1.22691e-06
1.18235e-06
1.15251e-06
1.12214e-06
1.09825e-06
1.12201e-06
1.2864e-06
1.69804e-06
2.28164e-06
2.5499e-06
2.64822e-06
2.71903e-06
3.11571e-06
3.06302e-06
2.40316e-06
2.03288e-06
2.10851e-06
2.46529e-06
5.05768e-06
8.92366e-06
1.01725e-05
1.02154e-05
1.26332e-05
2.33616e-05
2.83037e-05
4.14474e-05
6.45346e-05
5.70934e-05
3.23417e-05
8.02549e-06
4.54653e-06
9.67302e-06
1.55514e-05
1.30019e-05
0.00141812
2.60957e-05
7.02418e-06
4.35722e-06
1.70504e-06
1.41996e-06
2.43539e-06
2.38787e-06
1.93388e-06
8.0064e-05
3.89637e-06
3.56028e-06
3.31483e-06
2.96319e-06
2.28933e-06
2.3336e-06
2.29479e-06
2.12025e-06
1.8102e-06
1.48024e-06
1.29336e-06
1.20903e-06
1.16351e-06
1.13178e-06
1.10565e-06
1.08359e-06
1.09301e-06
1.2786e-06
1.68115e-06
2.25886e-06
2.53674e-06
2.64455e-06
2.6798e-06
3.01642e-06
2.94919e-06
2.35541e-06
2.01029e-06
2.13116e-06
2.49052e-06
5.06896e-06
8.98599e-06
1.02802e-05
1.0273e-05
1.27437e-05
2.33836e-05
2.83644e-05
4.18407e-05
6.72411e-05
5.9513e-05
3.37831e-05
8.60251e-06
4.28632e-06
8.47218e-06
1.34871e-05
1.25587e-05
0.00201888
1.99835e-05
7.58073e-06
4.74466e-06
1.73684e-06
1.56157e-06
2.75021e-06
2.45743e-06
2.11099e-06
8.15155e-05
4.07314e-06
3.68785e-06
3.32251e-06
3.01962e-06
2.79074e-06
2.16011e-06
2.26056e-06
2.37828e-06
2.4483e-06
2.38747e-06
2.1671e-06
1.83324e-06
1.51257e-06
1.28419e-06
1.19376e-06
1.14441e-06
1.11402e-06
1.08846e-06
1.06707e-06
1.08789e-06
1.27854e-06
1.68447e-06
2.26072e-06
2.54246e-06
2.64322e-06
2.64786e-06
2.90858e-06
2.82874e-06
2.28653e-06
1.99481e-06
2.15138e-06
2.51928e-06
4.98275e-06
9.04549e-06
1.03719e-05
1.04242e-05
1.28294e-05
2.28792e-05
2.83721e-05
4.3933e-05
6.98856e-05
6.1481e-05
3.51752e-05
8.93306e-06
3.97179e-06
7.37294e-06
1.17974e-05
1.24964e-05
0.00280371
1.70844e-05
8.4512e-06
5.49878e-06
1.81208e-06
1.7145e-06
3.06999e-06
2.49911e-06
2.25697e-06
8.20362e-05
4.2747e-06
3.81414e-06
3.3168e-06
3.03884e-06
2.86788e-06
2.55254e-06
2.12753e-06
2.20522e-06
2.32384e-06
2.45252e-06
2.54259e-06
2.46341e-06
2.19966e-06
1.87769e-06
1.53728e-06
1.28275e-06
1.17977e-06
1.12705e-06
1.09492e-06
1.07252e-06
1.05531e-06
1.0896e-06
1.28064e-06
1.69189e-06
2.27003e-06
2.54684e-06
2.64663e-06
2.61293e-06
2.79633e-06
2.70446e-06
2.20945e-06
1.94688e-06
2.17461e-06
2.5535e-06
4.99464e-06
9.13316e-06
1.04985e-05
1.04814e-05
1.30261e-05
2.27571e-05
2.84172e-05
4.67313e-05
7.24263e-05
6.33618e-05
3.66799e-05
9.66823e-06
3.79564e-06
6.37612e-06
1.04741e-05
1.24131e-05
0.00377822
1.44478e-05
9.72423e-06
6.79145e-06
1.94049e-06
1.86875e-06
3.37718e-06
2.51307e-06
2.3489e-06
8.14042e-05
4.36148e-06
3.9421e-06
3.40906e-06
3.15825e-06
2.9668e-06
2.70543e-06
2.46191e-06
2.16349e-06
2.24972e-06
2.38802e-06
2.52188e-06
2.58883e-06
2.48548e-06
2.20585e-06
1.90581e-06
1.58926e-06
1.30531e-06
1.16972e-06
1.11118e-06
1.0782e-06
1.05666e-06
1.04417e-06
1.08458e-06
1.2814e-06
1.68848e-06
2.25874e-06
2.54661e-06
2.64628e-06
2.57751e-06
2.68478e-06
2.57843e-06
2.13009e-06
1.91285e-06
2.19786e-06
2.59223e-06
5.01476e-06
9.22313e-06
1.06527e-05
1.04217e-05
1.31754e-05
2.26832e-05
2.85704e-05
5.11146e-05
7.45144e-05
6.4943e-05
3.8563e-05
1.01224e-05
3.70766e-06
5.49075e-06
9.23417e-06
1.2452e-05
0.00491339
1.42531e-05
1.15691e-05
8.86584e-06
2.1439e-06
2.01922e-06
3.64493e-06
2.51396e-06
2.37329e-06
7.97614e-05
4.42226e-06
3.94884e-06
3.60362e-06
3.25453e-06
3.017e-06
2.77963e-06
2.63523e-06
2.45162e-06
2.14767e-06
2.20462e-06
2.30337e-06
2.44619e-06
2.584e-06
2.63426e-06
2.48542e-06
2.23289e-06
1.95339e-06
1.63008e-06
1.31867e-06
1.16235e-06
1.09659e-06
1.06233e-06
1.04226e-06
1.03428e-06
1.08702e-06
1.26891e-06
1.70268e-06
2.28236e-06
2.55942e-06
2.64453e-06
2.53747e-06
2.56823e-06
2.45244e-06
2.05247e-06
1.91408e-06
2.22361e-06
2.63324e-06
5.00558e-06
9.33769e-06
1.08236e-05
1.05767e-05
1.3253e-05
2.26782e-05
2.84126e-05
5.63296e-05
7.70692e-05
6.68273e-05
4.0886e-05
1.1308e-05
3.63789e-06
4.73001e-06
8.1513e-06
1.44519e-05
0.00608928
1.59987e-05
1.42682e-05
1.2044e-05
2.42575e-06
2.15511e-06
3.85397e-06
2.51299e-06
2.36827e-06
7.67981e-05
4.44891e-06
4.08269e-06
3.77047e-06
3.39905e-06
3.07056e-06
2.85627e-06
2.69131e-06
2.54744e-06
2.37256e-06
2.14247e-06
2.18657e-06
2.24872e-06
2.35422e-06
2.50906e-06
2.63389e-06
2.65026e-06
2.4841e-06
2.23743e-06
1.97306e-06
1.69375e-06
1.34004e-06
1.15664e-06
1.08483e-06
1.04833e-06
1.02829e-06
1.02611e-06
1.09068e-06
1.27291e-06
1.70114e-06
2.29602e-06
2.57892e-06
2.66423e-06
2.49584e-06
2.45115e-06
2.32957e-06
1.97736e-06
1.91663e-06
2.25418e-06
2.67467e-06
4.9892e-06
9.45237e-06
1.1045e-05
1.07711e-05
1.32399e-05
2.24161e-05
2.87964e-05
6.30162e-05
7.9931e-05
6.83302e-05
4.38276e-05
1.20066e-05
3.61944e-06
4.06793e-06
7.44442e-06
1.57322e-05
0.00722058
1.85637e-05
1.81068e-05
1.67009e-05
2.83243e-06
2.2605e-06
3.98642e-06
2.50607e-06
2.35196e-06
7.28836e-05
4.49679e-06
4.21583e-06
3.82369e-06
3.44208e-06
3.14387e-06
2.98527e-06
2.78106e-06
2.63526e-06
2.491e-06
2.35811e-06
2.18158e-06
2.22788e-06
2.29045e-06
2.40494e-06
2.56673e-06
2.66711e-06
2.64698e-06
2.49271e-06
2.24457e-06
1.9973e-06
1.72727e-06
1.38229e-06
1.15767e-06
1.07445e-06
1.03559e-06
1.01649e-06
1.01679e-06
1.09066e-06
1.28162e-06
1.69176e-06
2.30216e-06
2.65033e-06
2.71004e-06
2.44783e-06
2.33648e-06
2.20859e-06
1.90304e-06
1.90565e-06
2.28568e-06
2.71918e-06
5.03115e-06
9.57685e-06
1.11615e-05
1.08536e-05
1.34671e-05
2.25209e-05
2.90861e-05
7.11886e-05
8.25428e-05
6.98872e-05
4.68875e-05
1.40022e-05
3.63988e-06
3.54223e-06
7.30357e-06
2.43692e-05
0.00813528
2.17393e-05
2.34853e-05
2.33087e-05
3.4084e-06
2.33803e-06
4.04394e-06
2.48554e-06
2.30541e-06
6.81863e-05
4.51173e-06
4.24074e-06
3.83811e-06
3.59407e-06
3.31738e-06
3.06841e-06
2.87412e-06
2.77511e-06
2.61227e-06
2.48606e-06
2.41844e-06
2.18067e-06
2.22458e-06
2.26575e-06
2.33136e-06
2.44882e-06
2.60759e-06
2.68996e-06
2.65383e-06
2.48395e-06
2.23674e-06
2.02426e-06
1.78509e-06
1.4378e-06
1.17613e-06
1.06722e-06
1.02419e-06
1.00573e-06
1.01075e-06
1.08827e-06
1.28112e-06
1.72084e-06
2.35573e-06
2.77761e-06
2.78021e-06
2.39417e-06
2.22574e-06
2.09178e-06
1.83178e-06
1.92289e-06
2.32323e-06
2.77071e-06
5.00667e-06
9.69587e-06
1.1337e-05
1.08154e-05
1.36891e-05
2.25666e-05
2.98808e-05
8.0671e-05
8.54537e-05
7.09411e-05
5.07415e-05
1.53647e-05
3.64316e-06
3.12039e-06
7.18037e-06
4.01854e-05
0.0088064
2.75922e-05
3.09244e-05
3.23154e-05
4.2314e-06
2.38006e-06
4.02694e-06
2.45194e-06
2.2279e-06
6.30509e-05
4.61241e-06
4.254e-06
3.93797e-06
3.66832e-06
3.4394e-06
3.11334e-06
2.92723e-06
2.83509e-06
2.71713e-06
2.67139e-06
2.62995e-06
2.50273e-06
2.1792e-06
2.22004e-06
2.25934e-06
2.30552e-06
2.37075e-06
2.49028e-06
2.64694e-06
2.69918e-06
2.64453e-06
2.4911e-06
2.24002e-06
2.04769e-06
1.81971e-06
1.49561e-06
1.18397e-06
1.06081e-06
1.01459e-06
9.97625e-07
1.00746e-06
1.09398e-06
1.27707e-06
1.73954e-06
2.44674e-06
2.94106e-06
2.88628e-06
2.33314e-06
2.12258e-06
1.98084e-06
1.76388e-06
1.91589e-06
2.36186e-06
2.82376e-06
5.07863e-06
9.81337e-06
1.14051e-05
1.1042e-05
1.36892e-05
2.2675e-05
3.00155e-05
9.21245e-05
8.86162e-05
7.19741e-05
5.44645e-05
1.88951e-05
3.62914e-06
2.7283e-06
7.24574e-06
7.81264e-05
0.00909128
3.60351e-05
4.10527e-05
4.40222e-05
5.41013e-06
2.40193e-06
3.93621e-06
2.41176e-06
2.12854e-06
5.78439e-05
4.70774e-06
4.33128e-06
4.03027e-06
3.68388e-06
3.45643e-06
3.1933e-06
3.01709e-06
2.90212e-06
2.79086e-06
2.74475e-06
2.74557e-06
2.74207e-06
2.75291e-06
2.1794e-06
2.21644e-06
2.26138e-06
2.30265e-06
2.33788e-06
2.40837e-06
2.52801e-06
2.6704e-06
2.69908e-06
2.64642e-06
2.50337e-06
2.2852e-06
2.07168e-06
1.85772e-06
1.54043e-06
1.1988e-06
1.05703e-06
1.00715e-06
9.91113e-07
1.00758e-06
1.09141e-06
1.29257e-06
1.75267e-06
2.61868e-06
3.14922e-06
2.99477e-06
2.27307e-06
2.02817e-06
1.87896e-06
1.70878e-06
1.94271e-06
2.40588e-06
2.88653e-06
5.10023e-06
9.93137e-06
1.13351e-05
1.12721e-05
1.38792e-05
2.27048e-05
3.05403e-05
0.000103178
9.03321e-05
7.28048e-05
5.85071e-05
2.1778e-05
3.62535e-06
2.40509e-06
8.00221e-06
0.000135967
0.00894539
4.9045e-05
5.46336e-05
5.82483e-05
7.10286e-06
2.42329e-06
3.78763e-06
2.36629e-06
2.02487e-06
5.29138e-05
4.79938e-06
4.46285e-06
4.11598e-06
3.77962e-06
3.57037e-06
3.35909e-06
3.08638e-06
2.91156e-06
2.83581e-06
2.81807e-06
2.83316e-06
2.90851e-06
2.97664e-06
2.91784e-06
2.18515e-06
2.18682e-06
2.22031e-06
2.2589e-06
2.29771e-06
2.33445e-06
2.37508e-06
2.44249e-06
2.56279e-06
2.68627e-06
2.69675e-06
2.65117e-06
2.49134e-06
2.29809e-06
2.09265e-06
1.90592e-06
1.58899e-06
1.22373e-06
1.05559e-06
1.00185e-06
9.88321e-07
1.00809e-06
1.09414e-06
1.30066e-06
1.80781e-06
2.81455e-06
3.36859e-06
3.12655e-06
2.21845e-06
1.93795e-06
1.79093e-06
1.67763e-06
1.95408e-06
2.453e-06
2.96225e-06
5.06281e-06
1.00596e-05
1.1544e-05
1.15254e-05
1.40657e-05
2.30113e-05
3.10199e-05
0.000112955
9.26113e-05
7.36135e-05
6.31586e-05
2.71128e-05
3.6609e-06
2.29529e-06
8.92554e-06
0.000249096
0.0086535
7.11295e-05
7.27393e-05
7.42077e-05
9.50211e-06
2.44516e-06
3.5897e-06
2.32205e-06
1.93187e-06
4.85059e-05
4.84223e-06
4.54323e-06
4.21168e-06
3.85927e-06
3.63431e-06
3.39868e-06
3.1866e-06
2.96301e-06
2.87104e-06
2.84681e-06
2.87103e-06
2.97381e-06
3.08553e-06
3.13157e-06
3.02186e-06
2.2999e-06
2.24658e-06
2.22849e-06
2.229e-06
2.25861e-06
2.29539e-06
2.33512e-06
2.3728e-06
2.41028e-06
2.47576e-06
2.5938e-06
2.69427e-06
2.69568e-06
2.64094e-06
2.50033e-06
2.29593e-06
2.11423e-06
1.93662e-06
1.63967e-06
1.25461e-06
1.0673e-06
9.99377e-07
9.88186e-07
1.00803e-06
1.10196e-06
1.30371e-06
1.90491e-06
3.03662e-06
3.6087e-06
3.25267e-06
2.17063e-06
1.86073e-06
1.72074e-06
1.67186e-06
1.9611e-06
2.50555e-06
3.06048e-06
5.16519e-06
1.02137e-05
1.17339e-05
1.18248e-05
1.44332e-05
2.32358e-05
3.19944e-05
0.000122768
9.51301e-05
7.41097e-05
6.86819e-05
3.20427e-05
3.68147e-06
2.27379e-06
1.21278e-05
0.000393622
0.00807796
0.000107455
9.62447e-05
9.07296e-05
1.28353e-05
2.50264e-06
3.36548e-06
2.28373e-06
1.85902e-06
4.47913e-05
4.88029e-06
4.64705e-06
4.32597e-06
3.98184e-06
3.71356e-06
3.40378e-06
3.2595e-06
3.04937e-06
2.8833e-06
2.86517e-06
2.88603e-06
2.99364e-06
3.12649e-06
3.23622e-06
3.27182e-06
3.10359e-06
2.64788e-06
2.35008e-06
2.28871e-06
2.26863e-06
2.26749e-06
2.29937e-06
2.33326e-06
2.37085e-06
2.40619e-06
2.44244e-06
2.50578e-06
2.61845e-06
2.6986e-06
2.69528e-06
2.63524e-06
2.49445e-06
2.29365e-06
2.12458e-06
1.97141e-06
1.6922e-06
1.29677e-06
1.07321e-06
1.00001e-06
9.89049e-07
1.01083e-06
1.10622e-06
1.34293e-06
2.04433e-06
3.27172e-06
3.85235e-06
3.40023e-06
2.13286e-06
1.79532e-06
1.67973e-06
1.67433e-06
1.96872e-06
2.56566e-06
3.0567e-06
5.25713e-06
1.03867e-05
1.19689e-05
1.21558e-05
1.48326e-05
2.32869e-05
3.30116e-05
0.000132801
9.81783e-05
7.44537e-05
7.57173e-05
3.84575e-05
3.74361e-06
2.24991e-06
1.74571e-05
0.000632843
0.00739046
0.000159169
0.000124397
0.000106646
1.73469e-05
2.61125e-06
3.1332e-06
2.2583e-06
1.81231e-06
4.18316e-05
4.89614e-06
4.70085e-06
4.42137e-06
4.06913e-06
3.80757e-06
3.46868e-06
3.26995e-06
3.05103e-06
2.93833e-06
2.86044e-06
2.86815e-06
2.94276e-06
3.06127e-06
3.19543e-06
3.30514e-06
3.3342e-06
3.13688e-06
2.61386e-06
2.38179e-06
2.33827e-06
2.30351e-06
2.30815e-06
2.33337e-06
2.36905e-06
2.40066e-06
2.44017e-06
2.47219e-06
2.53146e-06
2.64028e-06
2.69699e-06
2.69117e-06
2.63283e-06
2.50221e-06
2.31671e-06
2.14187e-06
1.98899e-06
1.73215e-06
1.34694e-06
1.09101e-06
1.00561e-06
9.92326e-07
1.01392e-06
1.10988e-06
1.36674e-06
2.20298e-06
3.52437e-06
4.1064e-06
3.54146e-06
2.10523e-06
1.75354e-06
1.6743e-06
1.68449e-06
1.98126e-06
2.63293e-06
3.25951e-06
5.31035e-06
1.05673e-05
1.2079e-05
1.25268e-05
1.52026e-05
2.37039e-05
3.42305e-05
0.000143634
0.000101662
7.50867e-05
8.46567e-05
4.53372e-05
3.87917e-06
2.29848e-06
3.18109e-05
0.000986475
0.00658285
0.000221377
0.00015377
0.000120624
2.32462e-05
2.82394e-06
2.92566e-06
2.2508e-06
1.7964e-06
3.96573e-05
4.86948e-06
4.70368e-06
4.50331e-06
4.15577e-06
3.855e-06
3.53381e-06
3.32726e-06
3.09873e-06
2.95597e-06
2.85262e-06
2.85121e-06
2.88359e-06
2.97329e-06
3.09528e-06
3.25586e-06
3.39919e-06
3.42024e-06
3.1847e-06
2.62139e-06
2.42654e-06
2.38636e-06
2.35207e-06
2.34457e-06
2.37066e-06
2.40212e-06
2.44074e-06
2.46722e-06
2.50006e-06
2.5548e-06
2.65173e-06
2.69663e-06
2.68796e-06
2.63344e-06
2.49423e-06
2.3195e-06
2.15644e-06
2.01587e-06
1.77778e-06
1.40668e-06
1.10951e-06
1.01606e-06
1.0005e-06
1.01881e-06
1.12024e-06
1.45529e-06
2.37831e-06
3.77663e-06
4.34994e-06
3.69264e-06
2.09386e-06
1.74174e-06
1.67791e-06
1.69274e-06
2.00791e-06
2.71802e-06
3.4123e-06
5.32279e-06
1.07755e-05
1.20379e-05
1.29471e-05
1.5724e-05
2.40047e-05
3.55487e-05
0.000154244
0.000104636
7.55474e-05
9.56341e-05
5.36185e-05
4.02941e-06
2.43064e-06
4.70734e-05
0.00155333
0.00569372
0.000283835
0.000181759
0.000130726
3.06816e-05
3.20319e-06
2.76922e-06
2.25192e-06
1.79851e-06
3.82863e-05
4.89294e-06
4.72925e-06
4.52032e-06
4.20653e-06
3.91843e-06
3.66769e-06
3.44904e-06
3.20619e-06
2.99656e-06
2.87322e-06
2.8441e-06
2.8527e-06
2.90005e-06
3.01195e-06
3.17374e-06
3.36354e-06
3.52222e-06
3.51434e-06
3.2191e-06
2.67613e-06
2.46191e-06
2.42998e-06
2.38924e-06
2.38362e-06
2.40329e-06
2.43972e-06
2.46789e-06
2.49751e-06
2.5233e-06
2.56866e-06
2.65917e-06
2.68873e-06
2.66341e-06
2.61228e-06
2.48965e-06
2.32001e-06
2.17184e-06
2.03686e-06
1.82314e-06
1.46883e-06
1.14606e-06
1.03236e-06
1.01444e-06
1.03564e-06
1.13574e-06
1.50887e-06
2.53661e-06
4.01858e-06
4.59056e-06
3.84307e-06
2.09576e-06
1.74408e-06
1.67594e-06
1.69617e-06
2.05567e-06
2.81897e-06
3.57915e-06
5.49142e-06
1.09463e-05
1.23525e-05
1.34033e-05
1.63469e-05
2.43553e-05
3.621e-05
0.000165714
0.000108898
7.63342e-05
0.000108181
6.20111e-05
4.44926e-06
2.89988e-06
7.14954e-05
0.00229056
0.00482661
0.000341668
0.000208023
0.000136937
3.96866e-05
3.86628e-06
2.69611e-06
2.25208e-06
1.80425e-06
3.77868e-05
4.89159e-06
4.77171e-06
4.57631e-06
4.31433e-06
3.99773e-06
3.75318e-06
3.51112e-06
3.32261e-06
3.15472e-06
2.92861e-06
2.86088e-06
2.84483e-06
2.86513e-06
2.92832e-06
3.08326e-06
3.28219e-06
3.48648e-06
3.64047e-06
3.587e-06
3.24628e-06
2.62619e-06
2.49548e-06
2.45647e-06
2.43366e-06
2.41831e-06
2.44079e-06
2.4678e-06
2.49531e-06
2.52129e-06
2.54084e-06
2.58104e-06
2.66078e-06
2.66498e-06
2.62256e-06
2.56913e-06
2.48795e-06
2.33057e-06
2.17977e-06
2.06422e-06
1.87828e-06
1.54933e-06
1.18781e-06
1.05592e-06
1.03503e-06
1.06235e-06
1.16995e-06
1.58054e-06
2.69773e-06
4.25611e-06
4.81487e-06
3.98837e-06
2.10626e-06
1.74185e-06
1.68832e-06
1.72018e-06
2.158e-06
2.95594e-06
3.75531e-06
5.54991e-06
1.10287e-05
1.26828e-05
1.39002e-05
1.69971e-05
2.522e-05
3.70395e-05
0.000176847
0.000115671
7.68292e-05
0.000122867
7.14991e-05
4.73974e-06
3.34605e-06
0.000113471
0.00315153