/*--------------------------------*- C++ -*----------------------------------*\
| =========                 |                                                 |
| \\      /  F ield         | OpenFOAM: The Open Source CFD Toolbox           |
|  \\    /   O peration     | Version:  2212                                  |
|   \\  /    A nd           | Website:  www.openfoam.com                      |
|    \\/     M anipulation  |                                                 |
\*---------------------------------------------------------------------------*/
FoamFile
{
    version     2.0;
    format      ascii;
    arch        "LSB;label=32;scalar=64";
    class       volScalarField;
    location    "0";
    object      nut;
}
// * * * * * * * * * * * * * * * * * * * * * * * * * * * * * * * * * * * * * //

dimensions      [0 2 -1 0 0 0 0];

internalField   nonuniform List<scalar> 
82540
(
1.95034e-08
1.48653e-08
1.98958e-08
4.78883e-09
1.48675e-08
2.01668e-08
2.27607e-09
4.41562e-09
1.44774e-08
2.04171e-08
5.25615e-09
2.18833e-09
4.09104e-09
1.42354e-08
2.07572e-08
1.09215e-07
4.70784e-09
2.06628e-09
3.84416e-09
1.3505e-08
2.11656e-08
6.34285e-07
9.48387e-08
4.27638e-09
2.043e-09
3.63723e-09
1.30261e-08
2.16718e-08
6.9243e-07
5.41985e-07
8.08918e-08
4.00158e-09
1.97025e-09
3.50625e-09
1.21158e-08
2.21412e-08
6.89909e-07
5.82665e-07
4.43829e-07
6.80431e-08
3.82306e-09
1.98079e-09
3.40596e-09
1.15506e-08
2.27491e-08
2.08985e-07
5.95763e-07
4.68486e-07
3.57809e-07
5.64867e-08
3.78784e-09
1.98097e-09
3.36328e-09
1.0683e-08
2.33016e-08
7.24751e-08
2.19182e-07
4.93965e-07
3.65841e-07
2.76788e-07
4.67929e-08
3.83097e-09
2.01294e-09
3.34044e-09
1.02421e-08
2.39707e-08
4.79159e-08
2.3059e-08
8.03723e-08
2.2241e-07
3.93744e-07
2.75862e-07
2.13483e-07
3.86265e-08
3.96047e-09
2.06959e-09
3.37654e-09
9.6636e-09
2.46203e-08
9.00117e-08
9.5046e-08
4.3069e-08
2.41137e-08
8.73353e-08
2.26881e-07
3.04458e-07
2.02452e-07
1.57485e-07
3.25636e-08
4.14939e-09
2.13313e-09
3.39481e-09
9.49409e-09
2.53516e-08
3.55542e-09
1.12176e-08
7.7719e-08
8.42281e-08
3.89231e-08
2.53069e-08
9.44232e-08
2.28904e-07
2.27468e-07
1.44743e-07
1.18781e-07
2.78838e-08
4.39384e-09
2.2281e-09
3.49672e-09
9.3301e-09
2.61e-08
1.00483e-07
2.54365e-08
4.1488e-09
1.06802e-08
6.62783e-08
7.36413e-08
3.49962e-08
2.65612e-08
1.0199e-07
2.29818e-07
1.69696e-07
1.04785e-07
8.92931e-08
2.48417e-08
4.68504e-09
2.32661e-09
3.53838e-09
9.47598e-09
2.68686e-08
4.85609e-08
1.00475e-07
2.74674e-08
4.52928e-09
9.76495e-09
5.54316e-08
6.34637e-08
3.12762e-08
2.80655e-08
1.08133e-07
2.26111e-07
1.26192e-07
7.86302e-08
7.31126e-08
2.25142e-08
4.96604e-09
2.45637e-09
3.67008e-09
9.61096e-09
2.77245e-08
3.78873e-08
5.16213e-08
9.4587e-08
2.95426e-08
5.30858e-09
8.64273e-09
4.51162e-08
5.39882e-08
2.86955e-08
2.97624e-08
1.14702e-07
2.21321e-07
9.89028e-08
6.42776e-08
6.35865e-08
2.12293e-08
5.23691e-09
2.58294e-09
3.72896e-09
9.90973e-09
2.85534e-08
3.15032e-08
4.0532e-08
5.42311e-08
9.23472e-08
3.20672e-08
5.81599e-09
7.83422e-09
3.63123e-08
4.5316e-08
2.69257e-08
3.16054e-08
1.19902e-07
2.12489e-07
8.52021e-08
5.82424e-08
6.02798e-08
1.99695e-08
5.51941e-09
2.73176e-09
3.84327e-09
1.00812e-08
2.94851e-08
3.0524e-08
3.44628e-08
4.29984e-08
5.69855e-08
9.1132e-08
3.40011e-08
6.85037e-09
7.13348e-09
2.83601e-08
3.76785e-08
2.5778e-08
3.35803e-08
1.23364e-07
2.05926e-07
8.34755e-08
5.68576e-08
5.79564e-08
1.93395e-08
5.7497e-09
2.87617e-09
3.89799e-09
1.02353e-08
3.04036e-08
4.05465e-08
3.40464e-08
3.72715e-08
4.54051e-08
5.91146e-08
9.11065e-08
3.71844e-08
7.53314e-09
6.51129e-09
2.18713e-08
3.09169e-08
2.54625e-08
3.56409e-08
1.25302e-07
2.00273e-07
8.51286e-08
5.7904e-08
5.58697e-08
1.82378e-08
5.9164e-09
3.02432e-09
3.95209e-09
1.03514e-08
3.14093e-08
3.4664e-08
4.51297e-08
3.79236e-08
3.99525e-08
4.78706e-08
6.11674e-08
8.95829e-08
3.94321e-08
9.04836e-09
6.1388e-09
1.64741e-08
2.49368e-08
2.50147e-08
3.7692e-08
1.23166e-07
1.96291e-07
8.74305e-08
5.91179e-08
5.10927e-08
1.75324e-08
6.05103e-09
3.14998e-09
3.96111e-09
1.04154e-08
3.24447e-08
2.39114e-08
3.85087e-08
5.01784e-08
4.18451e-08
4.26365e-08
4.99278e-08
6.30644e-08
9.16102e-08
4.32901e-08
1.03011e-08
6.03002e-09
1.25429e-08
1.97337e-08
2.44568e-08
3.97798e-08
1.21529e-07
1.93235e-07
9.0953e-08
5.81925e-08
4.51186e-08
1.61503e-08
6.09635e-09
3.26813e-09
3.95178e-09
1.05152e-08
3.35235e-08
1.75761e-08
2.68407e-08
4.18283e-08
5.49597e-08
4.57737e-08
4.49163e-08
5.18124e-08
6.47439e-08
9.70655e-08
4.58118e-08
1.24632e-08
6.05176e-09
9.65904e-09
1.54455e-08
2.37774e-08
4.17737e-08
1.18919e-07
1.87532e-07
9.2525e-08
5.77586e-08
3.80276e-08
1.51496e-08
6.11357e-09
3.3527e-09
3.95547e-09
1.05385e-08
3.46674e-08
1.39953e-08
1.88792e-08
3.02139e-08
4.50785e-08
5.99139e-08
4.94998e-08
4.70036e-08
5.36801e-08
6.65249e-08
9.37922e-08
4.91117e-08
1.50779e-08
6.05032e-09
7.64331e-09
1.20764e-08
2.32841e-08
4.35507e-08
1.16944e-07
1.78959e-07
9.46453e-08
5.37518e-08
3.08155e-08
1.33461e-08
6.13687e-09
3.4222e-09
3.95458e-09
1.06385e-08
3.58291e-08
1.38421e-08
1.51659e-08
2.03415e-08
3.39508e-08
4.80797e-08
6.3559e-08
5.24277e-08
4.87512e-08
5.55911e-08
6.85348e-08
9.60014e-08
5.24991e-08
1.79384e-08
6.11291e-09
6.21188e-09
9.63661e-09
2.3297e-08
4.51638e-08
1.15244e-07
1.67905e-07
9.25702e-08
5.11479e-08
2.41805e-08
1.21846e-08
6.05794e-09
3.45806e-09
3.95653e-09
1.06392e-08
3.70645e-08
1.81873e-08
1.52785e-08
1.6536e-08
2.23069e-08
3.76155e-08
5.10435e-08
6.60228e-08
5.46651e-08
5.06683e-08
5.7308e-08
7.02168e-08
9.8492e-08
5.53284e-08
2.16256e-08
6.39375e-09
5.08918e-09
7.88095e-09
2.37536e-08
4.65004e-08
1.13211e-07
1.53763e-07
9.16212e-08
4.48059e-08
1.79779e-08
1.0019e-08
5.92316e-09
3.47988e-09
3.96605e-09
1.07473e-08
3.83113e-08
1.87741e-08
2.04639e-08
1.68601e-08
1.84031e-08
2.44021e-08
4.10533e-08
5.42911e-08
6.84139e-08
5.64073e-08
5.18724e-08
5.91443e-08
7.22517e-08
9.63149e-08
5.91522e-08
2.5721e-08
6.84422e-09
4.3057e-09
6.68605e-09
2.42954e-08
4.74777e-08
1.09065e-07
1.37935e-07
8.68289e-08
4.0788e-08
1.48039e-08
8.89149e-09
5.73531e-09
3.48697e-09
3.97735e-09
1.07405e-08
3.96373e-08
1.7097e-08
2.08168e-08
2.28697e-08
1.87156e-08
2.03141e-08
2.67147e-08
4.42428e-08
5.65398e-08
6.97856e-08
5.83408e-08
5.2978e-08
6.12393e-08
7.43447e-08
1.00506e-07
6.16419e-08
2.96579e-08
7.84534e-09
4.05732e-09
5.89827e-09
2.48073e-08
4.79337e-08
1.02857e-07
1.22163e-07
8.33784e-08
3.33884e-08
1.12346e-08
7.03861e-09
5.51938e-09
3.48283e-09
4.00708e-09
1.07933e-08
4.09903e-08
1.7853e-08
1.84049e-08
2.29063e-08
2.53715e-08
2.05885e-08
2.22897e-08
2.86093e-08
4.70523e-08
5.83906e-08
7.12524e-08
5.9451e-08
5.39468e-08
6.37303e-08
7.64247e-08
1.02289e-07
6.42527e-08
3.50499e-08
8.91642e-09
3.90461e-09
5.45316e-09
2.52143e-08
4.75622e-08
9.53985e-08
1.06763e-07
7.66831e-08
2.87999e-08
1.05146e-08
6.44743e-09
5.28042e-09
3.48331e-09
4.04848e-09
1.07859e-08
4.24168e-08
2.71188e-08
1.86881e-08
1.9682e-08
2.49608e-08
2.78207e-08
2.26174e-08
2.40876e-08
3.01977e-08
5.02426e-08
6.02901e-08
7.28508e-08
6.05593e-08
5.50285e-08
6.66591e-08
7.85532e-08
1.01541e-07
6.77353e-08
3.93456e-08
1.01855e-08
3.87442e-09
5.2404e-09
2.5846e-08
4.67567e-08
8.71727e-08
9.29071e-08
7.14735e-08
2.24922e-08
8.98529e-09
5.52139e-09
5.02644e-09
3.48134e-09
4.12242e-09
1.0777e-08
4.38922e-08
5.37286e-08
2.7799e-08
1.95535e-08
2.09108e-08
2.69327e-08
3.01049e-08
2.44645e-08
2.5361e-08
3.13694e-08
5.22684e-08
6.23842e-08
7.3588e-08
6.14752e-08
5.56809e-08
7.02209e-08
8.04237e-08
1.04991e-07
7.06462e-08
4.45548e-08
1.18689e-08
3.99534e-09
5.09343e-09
2.62073e-08
4.54749e-08
7.85006e-08
7.91851e-08
6.42154e-08
1.88604e-08
8.63769e-09
5.32189e-09
4.76336e-09
3.48295e-09
4.22343e-09
1.0768e-08
4.54132e-08
6.16096e-08
5.43566e-08
2.83567e-08
2.0336e-08
2.2004e-08
2.86549e-08
3.21037e-08
2.61331e-08
2.641e-08
3.28145e-08
5.45745e-08
6.34769e-08
7.4116e-08
6.23456e-08
5.65351e-08
7.4174e-08
8.21122e-08
1.08787e-07
7.42398e-08
4.95523e-08
1.35799e-08
4.0392e-09
5.04546e-09
2.56174e-08
4.37644e-08
6.97361e-08
6.74067e-08
6.11767e-08
1.50904e-08
7.90593e-09
4.95991e-09
4.50029e-09
3.48208e-09
4.37144e-09
1.07464e-08
4.7019e-08
5.92553e-08
6.14926e-08
5.50161e-08
2.89041e-08
2.11576e-08
2.30194e-08
3.01336e-08
3.37049e-08
2.73544e-08
2.72213e-08
3.36776e-08
5.71115e-08
6.43975e-08
7.52377e-08
6.30018e-08
5.75949e-08
7.83344e-08
8.37776e-08
1.07151e-07
7.73781e-08
5.43561e-08
1.55507e-08
4.17461e-09
5.04657e-09
2.47636e-08
4.171e-08
6.11194e-08
5.68715e-08
5.62293e-08
1.33005e-08
7.41517e-09
4.66622e-09
4.24361e-09
3.48732e-09
4.5532e-09
1.06914e-08
4.8656e-08
3.54601e-08
5.76282e-08
6.02633e-08
5.40805e-08
2.95264e-08
2.18378e-08
2.38795e-08
3.13727e-08
3.49036e-08
2.8326e-08
2.8054e-08
3.45487e-08
5.85971e-08
6.549e-08
7.68009e-08
6.37452e-08
5.84045e-08
8.18419e-08
8.57511e-08
1.11991e-07
8.03089e-08
5.88035e-08
1.78722e-08
4.34915e-09
5.14807e-09
2.38131e-08
3.93055e-08
5.28359e-08
4.76302e-08
5.40217e-08
1.20843e-08
6.92066e-09
4.37338e-09
4.00439e-09
3.50808e-09
4.79034e-09
1.0588e-08
5.04261e-08
2.04395e-08
3.47078e-08
5.46061e-08
5.82728e-08
5.16157e-08
2.99937e-08
2.25682e-08
2.4702e-08
3.23842e-08
3.56804e-08
2.91219e-08
2.90603e-08
3.53718e-08
6.01323e-08
6.69749e-08
7.73123e-08
6.44413e-08
5.93694e-08
8.50508e-08
8.72478e-08
1.15929e-07
8.34999e-08
6.41078e-08
2.00799e-08
4.76724e-09
5.24027e-09
2.28193e-08
3.66275e-08
4.51383e-08
4.03615e-08
5.33531e-08
1.16726e-08
6.45414e-09
4.07816e-09
3.79443e-09
3.55012e-09
5.06388e-09
1.04721e-08
5.21837e-08
1.2672e-08
1.87483e-08
3.12695e-08
5.07301e-08
5.50931e-08
4.89571e-08
3.02942e-08
2.30863e-08
2.53646e-08
3.31838e-08
3.62065e-08
2.98449e-08
2.9703e-08
3.61882e-08
6.12065e-08
6.7618e-08
7.84484e-08
6.55251e-08
6.05836e-08
8.75732e-08
8.85741e-08
1.12329e-07
8.77388e-08
6.81515e-08
2.30515e-08
5.15431e-09
5.35249e-09
2.18068e-08
3.37639e-08
3.812e-08
3.4561e-08
5.12086e-08
1.11824e-08
6.02117e-09
3.82069e-09
3.63291e-09
3.61952e-09
5.3933e-09
1.03272e-08
5.40835e-08
1.19738e-08
1.70286e-08
2.78147e-08
4.62419e-08
5.13852e-08
4.55229e-08
3.11015e-08
2.36784e-08
2.6028e-08
3.37449e-08
3.64455e-08
3.05398e-08
3.04491e-08
3.68458e-08
6.3101e-08
6.82757e-08
8.01208e-08
6.60809e-08
6.17949e-08
8.94343e-08
8.97514e-08
1.12021e-07
8.92691e-08
7.2786e-08
2.59767e-08
5.81983e-09
5.52016e-09
2.07535e-08
3.08546e-08
3.18853e-08
3.1867e-08
5.16292e-08
1.07597e-08
5.77364e-09
3.58937e-09
3.52073e-09
3.71681e-09
5.75316e-09
1.01959e-08
5.60049e-08
9.55269e-09
1.12581e-08
1.56705e-08
2.45508e-08
4.13956e-08
4.6995e-08
4.20934e-08
3.08606e-08
2.40298e-08
2.6529e-08
3.40925e-08
3.6445e-08
3.1385e-08
3.12334e-08
3.713e-08
6.41051e-08
6.91629e-08
8.06158e-08
6.68478e-08
6.27002e-08
9.07012e-08
9.12214e-08
1.0681e-07
9.18495e-08
7.54514e-08
2.94537e-08
6.52996e-09
5.4824e-09
1.95631e-08
2.7996e-08
2.66504e-08
3.00824e-08
5.1743e-08
1.03674e-08
5.66683e-09
3.41943e-09
3.43781e-09
3.85133e-09
6.15443e-09
1.0079e-08
5.80515e-08
8.87717e-09
9.24832e-09
1.06343e-08
1.4302e-08
2.18086e-08
3.63429e-08
4.22371e-08
3.79186e-08
3.05722e-08
2.43386e-08
2.70634e-08
3.41899e-08
3.61725e-08
3.19417e-08
3.21657e-08
3.74358e-08
6.61373e-08
7.04535e-08
8.11561e-08
6.74522e-08
6.37998e-08
9.12322e-08
8.95496e-08
1.04252e-07
9.20277e-08
7.89633e-08
3.29658e-08
7.19245e-09
5.55248e-09
1.82549e-08
2.52602e-08
2.21853e-08
3.18062e-08
5.10223e-08
1.00382e-08
5.64192e-09
3.27749e-09
3.36537e-09
4.02574e-09
6.56806e-09
1.00084e-08
6.01478e-08
8.66185e-09
8.93705e-09
1.00438e-08
1.30721e-08
1.92737e-08
3.14439e-08
3.7445e-08
3.41269e-08
2.95004e-08
2.43204e-08
2.74146e-08
3.37232e-08
3.56064e-08
3.27875e-08
3.2778e-08
3.77324e-08
6.70889e-08
7.08217e-08
8.34032e-08
6.80615e-08
6.47033e-08
9.10775e-08
8.67926e-08
1.02868e-07
9.22678e-08
8.14735e-08
3.64702e-08
8.12837e-09
5.36216e-09
1.67915e-08
2.2691e-08
1.85617e-08
3.66919e-08
5.22085e-08
9.83537e-09
5.65546e-09
3.16178e-09
3.29943e-09
4.2475e-09
6.99271e-09
9.95973e-09
6.23125e-08
8.30772e-09
8.49236e-09
8.68107e-09
9.52898e-09
1.18402e-08
1.68731e-08
2.68472e-08
3.27987e-08
2.99289e-08
2.69355e-08
2.42771e-08
2.77776e-08
3.30752e-08
3.48069e-08
3.3104e-08
3.35748e-08
3.82209e-08
6.89132e-08
7.1201e-08
8.32872e-08
6.90437e-08
6.56279e-08
9.06496e-08
8.57841e-08
1.02674e-07
9.16757e-08
8.46662e-08
3.9588e-08
8.7635e-09
5.15278e-09
1.52753e-08
2.02638e-08
1.55628e-08
3.91663e-08
5.01623e-08
9.71406e-09
5.68773e-09
3.10563e-09
3.2618e-09
4.52527e-09
7.39593e-09
9.93988e-09
6.45155e-08
8.19331e-09
8.21393e-09
8.30162e-09
8.42318e-09
9.08934e-09
1.08891e-08
1.48218e-08
2.28205e-08
2.83781e-08
2.66144e-08
2.42689e-08
2.39089e-08
2.79236e-08
3.22984e-08
3.38126e-08
3.33576e-08
3.44121e-08
3.82424e-08
6.96709e-08
7.18172e-08
8.49507e-08
6.95301e-08
6.61885e-08
8.99072e-08
8.54119e-08
1.02714e-07
9.35853e-08
8.83811e-08
4.28805e-08
9.68095e-09
4.918e-09
1.37597e-08
1.80201e-08
1.31977e-08
5.06929e-08
5.10675e-08
9.68844e-09
5.69687e-09
3.06703e-09
3.24829e-09
4.86231e-09
7.77253e-09
9.914e-09
6.67144e-08
8.35406e-09
8.16442e-09
8.10697e-09
8.15803e-09
8.20323e-09
8.70649e-09
1.00092e-08
1.29608e-08
1.93126e-08
2.46441e-08
2.3565e-08
2.22099e-08
2.35593e-08
2.76886e-08
3.14424e-08
3.26706e-08
3.30997e-08
3.49301e-08
3.8404e-08
6.74571e-08
7.28169e-08
8.52693e-08
7.07929e-08
6.71077e-08
8.67192e-08
8.59149e-08
1.05003e-07
9.63883e-08
9.18478e-08
4.56563e-08
1.01971e-08
4.63841e-09
1.23042e-08
1.59407e-08
1.13184e-08
9.95858e-08
4.9489e-08
9.74641e-09
5.71389e-09
3.07296e-09
3.30544e-09
5.26118e-09
8.08965e-09
9.89005e-09
6.88687e-08
1.04304e-08
8.83904e-09
8.35693e-09
8.11999e-09
8.01605e-09
8.01164e-09
8.05837e-09
8.42647e-09
9.29071e-09
1.14924e-08
1.62876e-08
2.13944e-08
2.13088e-08
2.11134e-08
2.29804e-08
2.71866e-08
3.03807e-08
3.14987e-08
3.25731e-08
3.53047e-08
3.87501e-08
6.55673e-08
7.29336e-08
8.54175e-08
7.18411e-08
6.75535e-08
8.27249e-08
8.5615e-08
1.05395e-07
9.95697e-08
9.70958e-08
4.88124e-08
1.10558e-08
4.37956e-09
1.09415e-08
1.40446e-08
9.92781e-09
1.88435e-07
4.90707e-08
9.90935e-09
5.78325e-09
3.09162e-09
3.42461e-09
5.71763e-09
8.34819e-09
9.84142e-09
7.09113e-08
1.52758e-08
1.14778e-08
1.05735e-08
8.91018e-09
8.36055e-09
8.06514e-09
7.91901e-09
7.89644e-09
7.91381e-09
8.14614e-09
8.78848e-09
1.03452e-08
1.41122e-08
1.89145e-08
1.96383e-08
1.99017e-08
2.23678e-08
2.65976e-08
2.93705e-08
3.02241e-08
3.17727e-08
3.56562e-08
3.93243e-08
6.48297e-08
7.30005e-08
8.5319e-08
7.3279e-08
6.81848e-08
8.1285e-08
8.498e-08
1.02423e-07
1.05429e-07
1.0083e-07
5.13978e-08
1.14862e-08
4.06984e-09
9.67863e-09
1.23383e-08
8.87626e-09
3.19508e-07
4.6115e-08
1.01915e-08
5.9456e-09
3.15363e-09
3.61391e-09
6.22208e-09
8.52115e-09
9.77045e-09
7.27598e-08
1.53693e-08
1.36993e-08
1.18047e-08
1.18392e-08
1.07173e-08
8.94914e-09
8.33263e-09
8.00074e-09
7.82926e-09
7.76729e-09
7.78507e-09
7.95722e-09
8.25404e-09
9.54536e-09
1.28497e-08
1.70787e-08
1.83166e-08
1.93208e-08
2.1745e-08
2.59938e-08
2.82544e-08
2.89741e-08
3.10098e-08
3.60107e-08
3.94991e-08
6.47162e-08
7.30649e-08
8.71479e-08
7.24898e-08
6.86181e-08
8.09518e-08
8.59833e-08
1.0258e-07
1.08872e-07
1.05283e-07
5.4871e-08
1.22666e-08
3.80083e-09
8.51947e-09
1.08539e-08
8.0853e-09
4.83786e-07
4.35712e-08
1.0581e-08
6.23236e-09
3.24108e-09
3.86988e-09
6.76015e-09
8.61969e-09
9.65243e-09
7.43484e-08
1.56293e-08
1.41649e-08
1.2822e-08
1.20259e-08
1.23269e-08
1.22031e-08
1.08532e-08
9.15241e-09
8.28775e-09
7.92374e-09
7.72167e-09
7.65261e-09
7.65947e-09
7.74212e-09
8.03019e-09
9.27702e-09
1.22327e-08
1.61426e-08
1.78185e-08
1.90303e-08
2.1291e-08
2.53274e-08
2.72058e-08
2.76399e-08
3.03301e-08
3.58168e-08
3.98761e-08
6.51237e-08
7.33072e-08
8.65218e-08
7.37745e-08
6.89445e-08
8.05216e-08
8.59625e-08
1.02476e-07
1.13649e-07
1.08387e-07
5.75653e-08
1.2652e-08
3.5344e-09
7.47827e-09
9.53215e-09
7.44151e-09
6.8881e-07
3.67827e-08
1.12701e-08
6.71242e-09
3.35988e-09
4.16657e-09
7.31052e-09
8.63047e-09
9.49743e-09
7.55481e-08
1.52788e-08
1.42681e-08
1.35902e-08
1.241e-08
1.19422e-08
1.27091e-08
1.29395e-08
1.25232e-08
1.10471e-08
9.24661e-09
8.23199e-09
7.84334e-09
7.63074e-09
7.51739e-09
7.5511e-09
7.64287e-09
7.83526e-09
9.25175e-09
1.21256e-08
1.5945e-08
1.77308e-08
1.89913e-08
2.09851e-08
2.45559e-08
2.60628e-08
2.62337e-08
2.89973e-08
3.57715e-08
4.02028e-08
6.52762e-08
7.42167e-08
8.67257e-08
7.36782e-08
6.95249e-08
8.1468e-08
8.60973e-08
1.02023e-07
1.16163e-07
1.11462e-07
5.98409e-08
1.34048e-08
3.2863e-09
6.54789e-09
8.3785e-09
7.23476e-09
9.27766e-07
2.86622e-08
1.22369e-08
7.56773e-09
3.56766e-09
4.51093e-09
7.84782e-09
8.57211e-09
9.2758e-09
7.63327e-08
1.52462e-08
1.43033e-08
1.3222e-08
1.23883e-08
1.16969e-08
1.0704e-08
1.14431e-08
1.2456e-08
1.34081e-08
1.35287e-08
1.28461e-08
1.12458e-08
9.47233e-09
8.19566e-09
7.76571e-09
7.52784e-09
7.41306e-09
7.43174e-09
7.52742e-09
7.82296e-09
9.29612e-09
1.21718e-08
1.59363e-08
1.77543e-08
1.89469e-08
2.07233e-08
2.37315e-08
2.49636e-08
2.47307e-08
2.78132e-08
3.57432e-08
4.08078e-08
6.43916e-08
7.42377e-08
8.64914e-08
7.44792e-08
7.01293e-08
7.99438e-08
8.61699e-08
1.05385e-07
1.19173e-07
1.13388e-07
6.18942e-08
1.37838e-08
3.01111e-09
5.69778e-09
7.42796e-09
7.26556e-09
1.2171e-06
2.49899e-08
1.36766e-08
8.98331e-09
3.90006e-09
4.88319e-09
8.34604e-09
8.44196e-09
9.00619e-09
7.65768e-08
1.55123e-08
1.4292e-08
1.28613e-08
1.20829e-08
1.17364e-08
1.06854e-08
1.04681e-08
1.09578e-08
1.1801e-08
1.28929e-08
1.40039e-08
1.40119e-08
1.30752e-08
1.15499e-08
9.63099e-09
8.2044e-09
7.69738e-09
7.44396e-09
7.3123e-09
7.33471e-09
7.45444e-09
7.87143e-09
9.36939e-09
1.22472e-08
1.59728e-08
1.77619e-08
1.89064e-08
2.04338e-08
2.28571e-08
2.38322e-08
2.33267e-08
2.63092e-08
3.57964e-08
4.1077e-08
6.44978e-08
7.47259e-08
8.68989e-08
7.48428e-08
7.10464e-08
7.93958e-08
8.65867e-08
1.10137e-07
1.21877e-07
1.15415e-07
6.38134e-08
1.4666e-08
2.85219e-09
4.9239e-09
6.6889e-09
7.2919e-09
1.55151e-06
2.11805e-08
1.56913e-08
1.11904e-08
4.38031e-09
5.26708e-09
8.7776e-09
8.26196e-09
8.66439e-09
7.61741e-08
1.56604e-08
1.43521e-08
1.27727e-08
1.2247e-08
1.18368e-08
1.10982e-08
1.03214e-08
1.06745e-08
1.12051e-08
1.21634e-08
1.33102e-08
1.43188e-08
1.41737e-08
1.31315e-08
1.17684e-08
9.97527e-09
8.36592e-09
7.6488e-09
7.35718e-09
7.23002e-09
7.23537e-09
7.38749e-09
7.88669e-09
9.44365e-09
1.22473e-08
1.58728e-08
1.76876e-08
1.88064e-08
2.01064e-08
2.19915e-08
2.27205e-08
2.20651e-08
2.50309e-08
3.59397e-08
4.14906e-08
6.48539e-08
7.50929e-08
8.75415e-08
7.38965e-08
7.16509e-08
7.91342e-08
8.66167e-08
1.18267e-07
1.23689e-07
1.1616e-07
6.61411e-08
1.50984e-08
2.76298e-09
4.24189e-09
5.98032e-09
7.40746e-09
1.92048e-06
2.07501e-08
1.84913e-08
1.4519e-08
5.05694e-09
5.65144e-09
9.12176e-09
8.07575e-09
8.25422e-09
7.51927e-08
1.58623e-08
1.4152e-08
1.31157e-08
1.22162e-08
1.15767e-08
1.10797e-08
1.08077e-08
1.02719e-08
1.05602e-08
1.08972e-08
1.14972e-08
1.24952e-08
1.36784e-08
1.46252e-08
1.42222e-08
1.32911e-08
1.203e-08
1.02346e-08
8.46802e-09
7.61593e-09
7.28793e-09
7.14893e-09
7.15466e-09
7.3571e-09
7.9655e-09
9.42521e-09
1.23803e-08
1.59963e-08
1.7696e-08
1.86733e-08
1.97525e-08
2.11107e-08
2.16161e-08
2.09755e-08
2.43717e-08
3.62052e-08
4.2063e-08
6.52002e-08
7.52563e-08
8.66234e-08
7.44674e-08
7.18579e-08
7.95465e-08
8.56781e-08
1.27577e-07
1.25871e-07
1.177e-07
6.88341e-08
1.64774e-08
2.69781e-09
3.65658e-09
5.3554e-09
8.70612e-09
2.28188e-06
2.35863e-08
2.22202e-08
1.9291e-08
5.9196e-09
6.0133e-09
9.35823e-09
7.92553e-09
7.88352e-09
7.34182e-08
1.60841e-08
1.45941e-08
1.34844e-08
1.23857e-08
1.14562e-08
1.092e-08
1.07542e-08
1.0448e-08
9.95124e-09
1.05228e-08
1.07625e-08
1.1134e-08
1.17796e-08
1.28574e-08
1.39852e-08
1.47567e-08
1.41942e-08
1.32142e-08
1.21328e-08
1.06378e-08
8.62466e-09
7.59379e-09
7.22344e-09
7.08548e-09
7.10929e-09
7.35465e-09
8.06284e-09
9.53071e-09
1.23999e-08
1.60353e-08
1.77381e-08
1.868e-08
1.93856e-08
2.02128e-08
2.05651e-08
2.0022e-08
2.3818e-08
3.67265e-08
4.28031e-08
6.47465e-08
7.62922e-08
8.66669e-08
7.45333e-08
7.16749e-08
7.85985e-08
8.64744e-08
1.39678e-07
1.28882e-07
1.17928e-07
7.21381e-08
1.70505e-08
2.67481e-09
3.14826e-09
4.95963e-09
9.59581e-09
2.63884e-06
2.70665e-08
2.69143e-08
2.54927e-08
7.03682e-09
6.34601e-09
9.48418e-09
7.78773e-09
7.61953e-09
7.11545e-08
1.66943e-08
1.51473e-08
1.3611e-08
1.22997e-08
1.1432e-08
1.11159e-08
1.06267e-08
1.03604e-08
1.00566e-08
9.77931e-09
1.07272e-08
1.09818e-08
1.13577e-08
1.2059e-08
1.31825e-08
1.4194e-08
1.46892e-08
1.42301e-08
1.32539e-08
1.22672e-08
1.0854e-08
8.90334e-09
7.6119e-09
7.17696e-09
7.03312e-09
7.08509e-09
7.35566e-09
8.13691e-09
9.66917e-09
1.2363e-08
1.60217e-08
1.81349e-08
1.88689e-08
1.89936e-08
1.93553e-08
1.95827e-08
1.91663e-08
2.32552e-08
3.68186e-08
4.32105e-08
6.49652e-08
7.78117e-08
8.58084e-08
7.38527e-08
7.22686e-08
7.88297e-08
8.73361e-08
1.53773e-07
1.31281e-07
1.18667e-07
7.52713e-08
1.9319e-08
2.68561e-09
2.74543e-09
4.93411e-09
1.50168e-08
2.94163e-06
3.11768e-08
3.2504e-08
3.28988e-08
8.47933e-09
6.63893e-09
9.51023e-09
7.63916e-09
7.35864e-09
6.84121e-08
1.75014e-08
1.57133e-08
1.3726e-08
1.27724e-08
1.18481e-08
1.11693e-08
1.06874e-08
1.06027e-08
1.02509e-08
1.00218e-08
1.00303e-08
1.07064e-08
1.09285e-08
1.1182e-08
1.15998e-08
1.23236e-08
1.34326e-08
1.4346e-08
1.4688e-08
1.41374e-08
1.31652e-08
1.24006e-08
1.12114e-08
9.25907e-09
7.74998e-09
7.14391e-09
6.99477e-09
7.08167e-09
7.39629e-09
8.19055e-09
9.73371e-09
1.26094e-08
1.63371e-08
1.89212e-08
1.92394e-08
1.85733e-08
1.85583e-08
1.8678e-08
1.84e-08
2.31116e-08
3.71269e-08
4.35874e-08
6.45572e-08
7.84444e-08
8.69989e-08
7.25123e-08
7.26722e-08
7.90846e-08
8.87386e-08
1.70167e-07
1.34846e-07
1.18591e-07
7.92838e-08
2.05216e-08
2.68569e-09
2.42363e-09
4.91623e-09
2.50628e-08
3.18357e-06
3.76791e-08
3.88267e-08
4.10194e-08
1.04583e-08
6.87872e-09
9.43126e-09
7.47386e-09
7.06938e-09
6.53231e-08
1.85461e-08
1.61569e-08
1.43498e-08
1.30791e-08
1.21778e-08
1.1128e-08
1.06255e-08
1.05236e-08
1.03386e-08
1.04313e-08
1.06124e-08
1.03965e-08
1.06621e-08
1.08818e-08
1.10758e-08
1.13873e-08
1.17953e-08
1.25682e-08
1.36666e-08
1.44484e-08
1.46006e-08
1.41843e-08
1.3178e-08
1.24646e-08
1.14239e-08
9.64865e-09
7.81106e-09
7.12111e-09
6.9674e-09
7.09389e-09
7.46483e-09
8.30295e-09
9.76204e-09
1.27759e-08
1.69124e-08
1.99407e-08
1.98752e-08
1.81053e-08
1.78363e-08
1.78607e-08
1.7709e-08
2.28011e-08
3.7307e-08
4.4363e-08
6.54134e-08
7.9142e-08
8.55636e-08
7.2804e-08
7.16499e-08
7.90244e-08
8.87395e-08
1.88752e-07
1.38529e-07
1.18808e-07
8.26271e-08
2.44138e-08
2.67418e-09
2.12475e-09
5.02797e-09
4.9373e-08
3.34183e-06
4.43985e-08
4.5689e-08
4.92327e-08
1.30903e-08
7.09132e-09
9.2543e-09
7.30954e-09
6.74367e-09
6.20474e-08
1.95215e-08
1.6754e-08
1.48539e-08
1.32117e-08
1.22195e-08
1.13002e-08
1.07556e-08
1.0511e-08
1.03375e-08
1.0464e-08
1.07487e-08
1.10472e-08
1.1423e-08
1.05179e-08
1.08459e-08
1.10501e-08
1.12853e-08
1.15471e-08
1.20019e-08
1.27584e-08
1.38171e-08
1.4455e-08
1.45991e-08
1.42133e-08
1.34461e-08
1.25487e-08
1.15978e-08
9.96471e-09
7.91609e-09
7.1104e-09
6.95752e-09
7.12843e-09
7.54381e-09
8.3435e-09
9.93122e-09
1.28997e-08
1.80435e-08
2.1283e-08
2.05465e-08
1.76479e-08
1.72308e-08
1.71515e-08
1.7165e-08
2.29175e-08
3.75791e-08
4.50852e-08
6.55908e-08
8.00367e-08
8.40904e-08
7.33357e-08
7.1904e-08
7.88749e-08
8.95014e-08
2.05195e-07
1.39795e-07
1.18931e-07
8.58486e-08
2.71506e-08
2.6667e-09
1.87851e-09
5.62259e-09
8.68316e-08
3.39124e-06
5.37453e-08
5.28009e-08
5.69404e-08
1.63358e-08
7.30662e-09
9.00179e-09
7.14452e-09
6.40951e-09
5.8793e-08
2.07847e-08
1.79011e-08
1.53854e-08
1.35227e-08
1.26138e-08
1.18563e-08
1.09182e-08
1.03902e-08
1.03063e-08
1.04646e-08
1.08025e-08
1.14151e-08
1.2021e-08
1.21396e-08
1.00994e-08
1.03895e-08
1.07536e-08
1.10135e-08
1.12043e-08
1.14426e-08
1.17449e-08
1.22055e-08
1.29585e-08
1.3931e-08
1.44712e-08
1.46376e-08
1.41583e-08
1.35089e-08
1.26235e-08
1.18733e-08
1.02828e-08
8.09225e-09
7.11691e-09
6.95974e-09
7.18187e-09
7.61717e-09
8.41813e-09
1.00354e-08
1.33316e-08
1.93463e-08
2.26955e-08
2.13996e-08
1.72458e-08
1.66729e-08
1.6591e-08
1.68863e-08
2.294e-08
3.77948e-08
4.56952e-08
6.48642e-08
8.05919e-08
8.41966e-08
7.37612e-08
7.18046e-08
7.99109e-08
8.96705e-08
2.17432e-07
1.42288e-07
1.19134e-07
8.98652e-08
3.26626e-08
2.69172e-09
1.79987e-09
6.34447e-09
1.59686e-07
3.41487e-06
6.55059e-08
6.01756e-08
6.3648e-08
2.0108e-08
7.51449e-09
8.68641e-09
6.99343e-09
6.10903e-09
5.5748e-08
2.19416e-08
1.90238e-08
1.62741e-08
1.39788e-08
1.28632e-08
1.19917e-08
1.12501e-08
1.04824e-08
1.02435e-08
1.03161e-08
1.0658e-08
1.12879e-08
1.20121e-08
1.25935e-08
1.26042e-08
1.0118e-08
1.01435e-08
1.03653e-08
1.06732e-08
1.09741e-08
1.11753e-08
1.13772e-08
1.16343e-08
1.1923e-08
1.23761e-08
1.31203e-08
1.40262e-08
1.43933e-08
1.45562e-08
1.41854e-08
1.3405e-08
1.27645e-08
1.20246e-08
1.05982e-08
8.31185e-09
7.21167e-09
6.98232e-09
7.26299e-09
7.68461e-09
8.523e-09
1.00952e-08
1.40746e-08
2.0834e-08
2.42829e-08
2.22384e-08
1.69201e-08
1.6269e-08
1.62209e-08
1.69269e-08
2.28879e-08
3.80659e-08
4.65787e-08
6.56768e-08
8.18239e-08
8.45401e-08
7.46022e-08
7.25945e-08
8.02023e-08
9.12516e-08
2.29447e-07
1.43748e-07
1.18775e-07
9.40265e-08
3.72192e-08
2.6975e-09
1.78906e-09
8.71717e-09
2.48387e-07
3.36582e-06
8.04092e-08
6.75872e-08
6.9034e-08
2.42657e-08
7.78634e-09
8.33988e-09
6.86458e-09
5.87168e-09
5.30936e-08
2.30903e-08
2.03606e-08
1.73584e-08
1.49368e-08
1.33096e-08
1.20449e-08
1.15016e-08
1.07637e-08
1.02363e-08
1.02801e-08
1.04876e-08
1.10739e-08
1.18541e-08
1.25976e-08
1.31584e-08
1.28738e-08
1.13617e-08
1.0372e-08
1.03987e-08
1.06085e-08
1.08658e-08
1.11662e-08
1.13388e-08
1.15458e-08
1.17958e-08
1.20957e-08
1.25314e-08
1.32626e-08
1.40189e-08
1.43978e-08
1.44905e-08
1.41467e-08
1.33579e-08
1.27987e-08
1.22205e-08
1.09383e-08
8.61227e-09
7.26855e-09
7.02161e-09
7.34013e-09
7.75518e-09
8.59532e-09
1.04292e-08
1.51384e-08
2.24236e-08
2.58909e-08
2.32519e-08
1.67105e-08
1.59807e-08
1.61682e-08
1.71362e-08
2.29156e-08
3.83497e-08
4.59785e-08
6.61637e-08
8.35078e-08
8.49446e-08
7.53297e-08
7.33192e-08
7.99405e-08
9.29374e-08
2.40146e-07
1.46874e-07
1.18215e-07
1.00011e-07
4.32675e-08
2.73667e-09
1.779e-09
1.26737e-08
3.81642e-07
3.28044e-06
9.6926e-08
7.46594e-08
7.29428e-08
2.86467e-08
8.15396e-09
7.98733e-09
6.76983e-09
5.71763e-09
5.09317e-08
2.41686e-08
2.14561e-08
1.86744e-08
1.59508e-08
1.41026e-08
1.23809e-08
1.15669e-08
1.07741e-08
1.04177e-08
1.025e-08
1.03715e-08
1.0817e-08
1.14512e-08
1.2119e-08
1.28218e-08
1.34075e-08
1.29943e-08
1.12367e-08
1.06008e-08
1.06884e-08
1.08869e-08
1.1116e-08
1.13319e-08
1.15055e-08
1.16858e-08
1.19628e-08
1.22432e-08
1.26666e-08
1.3364e-08
1.39869e-08
1.43983e-08
1.45201e-08
1.41775e-08
1.34664e-08
1.29158e-08
1.23037e-08
1.11331e-08
8.94356e-09
7.40841e-09
7.09383e-09
7.43249e-09
7.82835e-09
8.65524e-09
1.06379e-08
1.63491e-08
2.41369e-08
2.76436e-08
2.42586e-08
1.66324e-08
1.59612e-08
1.65129e-08
1.75302e-08
2.29648e-08
3.87031e-08
4.86241e-08
6.65113e-08
8.46887e-08
8.44835e-08
7.64133e-08
7.37307e-08
8.02916e-08
9.49247e-08
2.53037e-07
1.49447e-07
1.17742e-07
1.07437e-07
4.93619e-08
2.81754e-09
1.82452e-09
2.32544e-08
5.48642e-07
3.13129e-06
1.14418e-07
8.07503e-08
7.52745e-08
3.30725e-08
8.79556e-09
7.68166e-09
6.72179e-09
5.6631e-09
4.93334e-08
2.51794e-08
2.27247e-08
1.97928e-08
1.71486e-08
1.48863e-08
1.30861e-08
1.1833e-08
1.09842e-08
1.04876e-08
1.0202e-08
1.02965e-08
1.05445e-08
1.10614e-08
1.16813e-08
1.24117e-08
1.32232e-08
1.37016e-08
1.31752e-08
1.13291e-08
1.08868e-08
1.10629e-08
1.11914e-08
1.13153e-08
1.14892e-08
1.1659e-08
1.18759e-08
1.20699e-08
1.23862e-08
1.2779e-08
1.34263e-08
1.40247e-08
1.43932e-08
1.44851e-08
1.40955e-08
1.34454e-08
1.29179e-08
1.24518e-08
1.13974e-08
9.34108e-09
7.55841e-09
7.19839e-09
7.54664e-09
7.90031e-09
8.76208e-09
1.13305e-08
1.77017e-08
2.5938e-08
2.93713e-08
2.53841e-08
1.67449e-08
1.6257e-08
1.70284e-08
1.80123e-08
2.32701e-08
3.91945e-08
5.02274e-08
6.67106e-08
8.78306e-08
8.29439e-08
7.74552e-08
7.48528e-08
8.09173e-08
9.74716e-08
2.65146e-07
1.51332e-07
1.1724e-07
1.16498e-07
5.68594e-08
2.91385e-09
1.93932e-09
3.45073e-08
7.81587e-07
2.93856e-06
1.33045e-07
8.59491e-08
7.58688e-08
3.73894e-08
9.86812e-09
7.47475e-09
6.68988e-09
5.6633e-09
4.83419e-08
2.6524e-08
2.39404e-08
2.09828e-08
1.80949e-08
1.58016e-08
1.39187e-08
1.2593e-08
1.14457e-08
1.06497e-08
1.02597e-08
1.02601e-08
1.04376e-08
1.07624e-08
1.13224e-08
1.20345e-08
1.29187e-08
1.37375e-08
1.40488e-08
1.33895e-08
1.15399e-08
1.1035e-08
1.13739e-08
1.14473e-08
1.15253e-08
1.16373e-08
1.18313e-08
1.19961e-08
1.22088e-08
1.25107e-08
1.28344e-08
1.34623e-08
1.39659e-08
1.42729e-08
1.43791e-08
1.40852e-08
1.34251e-08
1.29541e-08
1.25508e-08
1.1613e-08
9.71919e-09
7.83348e-09
7.34189e-09
7.69645e-09
8.06059e-09
8.90243e-09
1.17449e-08
1.89345e-08
2.77375e-08
3.11501e-08
2.65886e-08
1.70406e-08
1.67825e-08
1.7572e-08
1.85577e-08
2.3968e-08
3.98655e-08
5.13774e-08
6.82149e-08
9.03565e-08
8.3818e-08
7.89672e-08
7.62601e-08
8.07549e-08
9.81274e-08
2.78094e-07
1.55272e-07
1.17013e-07
1.26535e-07
6.41962e-08
3.19113e-09
2.3246e-09
5.23963e-08
1.02202e-06
2.72231e-06
1.54798e-07
9.06747e-08
7.50117e-08
4.14556e-08
1.15621e-08
7.44669e-09
6.65268e-09
5.66715e-09
4.80166e-08
2.77884e-08
2.54643e-08
2.22825e-08
1.94361e-08
1.7053e-08
1.48383e-08
1.33113e-08
1.21204e-08
1.12725e-08
1.04466e-08
1.02744e-08
1.03345e-08
1.05713e-08
1.10002e-08
1.16508e-08
1.25634e-08
1.34707e-08
1.42672e-08
1.43983e-08
1.34368e-08
1.13443e-08
1.12817e-08
1.15332e-08
1.16363e-08
1.16527e-08
1.17888e-08
1.19462e-08
1.21159e-08
1.2317e-08
1.2591e-08
1.29055e-08
1.34814e-08
1.38677e-08
1.3997e-08
1.41044e-08
1.40633e-08
1.34876e-08
1.29381e-08
1.26768e-08
1.19213e-08
1.02438e-08
8.15413e-09
7.53758e-09
7.88285e-09
8.29247e-09
9.17962e-09
1.23139e-08
2.02031e-08
2.95531e-08
3.29024e-08
2.7876e-08
1.74985e-08
1.73353e-08
1.8365e-08
1.94347e-08
2.5443e-08
4.08791e-08
5.2489e-08
6.76882e-08
9.23769e-08
8.65879e-08
8.0348e-08
7.78455e-08
8.2223e-08
9.95051e-08
2.90415e-07
1.60354e-07
1.16534e-07
1.38068e-07
7.25516e-08
3.37532e-09
2.69455e-09
8.29253e-08