/*--------------------------------*- C++ -*----------------------------------*\
| =========                 |                                                 |
| \\      /  F ield         | OpenFOAM: The Open Source CFD Toolbox           |
|  \\    /   O peration     | Version:  2212                                  |
|   \\  /    A nd           | Website:  www.openfoam.com                      |
|    \\/     M anipulation  |                                                 |
\*---------------------------------------------------------------------------*/
FoamFile
{
    version     2.0;
    format      ascii;
    arch        "LSB;label=32;scalar=64";
    class       volScalarField;
    location    "0";
    object      omega;
}
// * * * * * * * * * * * * * * * * * * * * * * * * * * * * * * * * * * * * * //

dimensions      [0 0 -1 0 0 0 0];

internalField   nonuniform List<scalar> 
82540
(
635.538
136.803
641.121
459.593
128.83
651.645
565.382
434.295
121.323
664.728
345.083
562.635
411.547
113.494
676.559
650.483
340.311
559.203
388.16
106.143
687.44
1163.83
641.383
334.104
554.453
367.203
98.4085
696.476
1295.09
1162.12
627.757
326.096
547.156
344.781
91.7766
707.268
1363.18
1283.82
1158.41
614.977
315.667
536.201
324.987
84.5211
715.265
1196.62
1347.99
1267.04
1142.59
598.271
303.7
522.347
303.369
79.1773
725.819
1021.76
1243.13
1326.79
1231.95
1114.58
582.696
289.958
503.533
284.228
72.7721
733.612
728.665
913.135
1060.68
1270.44
1299.79
1186.48
1076.41
566.222
275.484
484.703
264.022
68.9576
742.459
700.915
962.222
729.516
968.748
1101.02
1282.94
1269.6
1130.08
1030.42
551.018
259.865
460.785
245.716
63.7508
750.618
575.916
640.707
706.241
946.368
728.495
1029.34
1144.12
1289.36
1234.95
1075.47
979.626
535.429
244.847
438.267
227.905
61.3222
758.107
351.757
541.891
571.199
645.669
707.141
931.555
729.037
1094.5
1185.65
1293.75
1198.91
1014.82
928.765
522.179
229.524
412.436
211.25
57.6576
765.687
319.568
372.234
531.409
566.653
645.919
709.482
918.034
729.715
1163.55
1226.8
1294.63
1156.86
959.536
874.061
506.772
216.07
388.687
196.84
56.0909
772.201
228.913
317.972
399.091
520.919
560.866
653.059
715.737
905.111
729.936
1235.7
1266.24
1296.41
1115.6
903.416
821.57
493.032
204.02
364.531
183.135
53.9734
779.431
181.739
228.543
318.239
423.88
512.503
555.426
652.212
715.757
893.313
730.109
1310.77
1305.59
1295.46
1069.6
849.509
765.826
475.925
194.068
342.882
172.971
53.0008
784.741
154.742
180.763
228.506
317.408
444.759
505.664
550.539
652.929
721.327
881.369
733.271
1387.26
1344.23
1295.05
1029.31
799.693
712.317
458.887
186.779
322.266
163.683
52.0327
791.232
119.547
151.586
180.628
228.336
318.925
465.715
493.58
546.015
656.06
718.946
870.684
737.858
1463.8
1381.44
1294.57
989.72
750.223
658.656
438.693
181.838
305.394
158.441
51.2408
796.674
113.748
115.686
147.895
180.752
227.105
320.655
477.398
484.264
539.919
658.148
722.735
859.559
746.472
1538.15
1417.66
1294.32
956.579
704.76
607.934
418.056
179.963
290.105
154.88
50.8234
802.505
98.2982
111.729
111.219
144.605
180.398
227.226
323.063
486.453
474.77
535.413
656.325
717.21
850.218
760.81
1608.28
1450.91
1295.74
928.457
660.916
560.852
396.226
179.682
278.3
154.122
50.0521
808.307
78.4442
94.4605
111.665
107.964
141.369
180.703
227.46
325.874
483.131
462.056
530.978
655.917
721.882
841.15
782.065
1673.49
1481.95
1294.29
903.431
620.363
517.453
375.026
179.911
268.493
153.624
49.705
813.718
74.4856
74.2388
91.2669
111.824
104.448
138.764
181.043
227.353
329.325
475.05
452.19
526.519
656.239
718.391
834.866
809.773
1732.38
1509.8
1286.39
887.38
584.438
482.519
355.833
180.962
261.816
153.651
48.9724
819.799
78.4398
70.2888
70.5675
88.3013
112.333
103.33
137.658
181.325
226.926
332.329
465.44
443.82
522.103
661.773
719.634
829.332
842.73
1784.38
1535.24
1266.76
872.771
551.574
451.37
339.758
183.813
256.547
153.699
48.6178
825.032
97.4803
74.1248
66.3892
67.582
86.3279
112.647
103.414
137.852
180.354
227.387
335.974
463.007
434.404
518.397
658.868
712.81
829.644
880.231
1829.22
1560.09
1230.95
867.92
526.509
431.711
329.12
188.443
253.539
154.151
47.9534
831.031
123.533
92.5155
70.1227
63.0743
65.2608
85.2046
111.877
103.279
138.015
180.722
228.016
338.234
462.024
429.12
513.028
661.357
705.851
832.588
920.439
1866.52
1584.94
1197.63
868.596
504.884
418.833
325.636
194.551
251.388
155.577
47.7133
836.511
141.318
120.234
87.8185
66.502
60.115
63.7764
84.8031
112.788
103.946
137.423
181.03
228.363
340.883
461.1
422.811
508.845
656.437
697.429
841.191
961.9
1896.04
1611.74
1182.38
872.702
491.134
416.388
326.113
201.736
250.728
157.699
47.4018
842.833
157.064
139.676
117.231
83.3106
63.2629
57.8515
63.0756
84.9711
113.856
104.33
137.584
181.048
228.745
342.479
459.804
422.12
499.751
657.241
690.563
853.099
1003.39
1918.97
1639.33
1180.96
871.129
480.957
417.833
326.266
210.022
250.372
160.581
47.3944
849.01
163.212
155.357
138.192
114.611
79.1728
60.5467
56.117
62.8376
84.2762
114.352
104.022
137.843
180.527
229.218
344.485
453.347
421.969
490.813
657.011
683.728
868.965
1043.15
1933.62
1667.09
1190.62
874.229
475.732
420.383
328.884
218.866
250.37
163.688
47.422
855.8
162.602
160.294
153.133
136.69
112.188
75.5719
58.2713
55.4623
63.0412
85.1482
113.985
105.086
137.52
181.293
230.129
346.028
448.371
422.034
484.065
657.415
677.89
888.729
1080.6
1941.14
1692.38
1218.59
864.977
474.515
432.021
333.626
228.154
250.406
167.096
47.4368
862.764
153.615
159.529
158.138
151.315
135.39
110.127
72.4468
56.7717
55.3694
62.6278
85.3105
115.088
106.212
137.725
181.409
231.826
347.185
446.58
422.627
475.023
657.013
672.979
910.996
1113.7
1944.66
1713.23
1250.36
859.216
476.402
451.128
346.182
237.643
250.584
170.454
47.5664
869.804
139.993
150.245
157.159
155.281
148.815
133.887
108.245
70.0047
56.1047
55.5029
62.948
84.6537
116.164
106.737
137.584
181.211
234.343
347.38
444.928
419.521
466.654
658.086
667.95
937.333
1143.08
1940.64
1727.81
1289.59
850.095
481.27
479.777
366.06
247.164
251.028
174.042
47.9208
878.09
137.24
139.431
147.775
154.104
153.209
146.958
132.65
106.709
68.0915
55.9081
55.5061
62.8518
85.1383
116.626
106.592
137.916
181.788
238.621
346.214
440.585
418.306
461.297
659.907
662.816
966.824
1168.32
1932.83
1735.67
1335.81
854.08
490.604
513.829
388.968
256.592
251.673
177.61
48.7242
886.102
136.929
137.304
138.927
145.134
152.044
150.606
144.293
131.071
105.441
66.9117
55.92
55.3087
62.8095
85.1985
116.283
108.07
137.711
182.478
243.309
344.888
435.676
418.636
454.517
655.782
658.514
998.07
1190.9
1918.15
1739.06
1378.83
842.86
504.627
554.019
416.119
265.879
252.633
181.521
50.0956
895.379
137.461
137.296
137.303
138.791
143.609
149.336
148.871
142.464
129.851
104.477
66.2098
56.1268
55.568
62.2923
85.3641
117.21
108.772
137.288
182.079
248.611
344.217
431.671
418.757
448.01
648.686
652.142
1029.64
1210.45
1901.12
1738.98
1431.42
857.628
522.651
596.051
443.241
274.878
253.731
185.586
52.2948
904.262
138.237
137.724
137.676
138.676
142.067
147.766
146.681
139.768
128.233
103.837
66.0704
56.2176
55.9078
62.094
84.1928
118.109
108.637
137.507
182.3
254.443
343.067
429.758
418.472
445.754
636.635
645.959
1058.65
1227.66
1879.08
1736.24
1478.25
861.742
543.601
637.707
470.736
283.469
255.205
190.314
55.5711
914.919
140.45
139.235
138.326
138.146
138.661
141.537
145.64
145.391
138.047
127.08
103.467
66.3648
56.2054
56.0108
62.1539
83.7728
118.384
110.366
137.589
182.709
260.107
341.616
425.459
420.914
447.661
625.275
639.985
1087.59
1242.52
1855.34
1732.1
1533.53
855.385
564.799
675.717
495.355
291.347
256.941
195.456
60.2645
925.769
145.454
141.844
140.364
138.913
138.46
138.607
141.163
144.724
143.699
135.497
125.593
103.447
67.1184
56.541
56.0309
62.2302
81.9666
117.95
111.614
137.74
182.957
265.956
339.895
421.223
428.878
451.628
612.894
635.626
1111.99
1255.07
1828.56
1728.12
1587.34
872.594
585.195
706.794
517.282
298.333
259.425
201.531
66.6444
938.392
147.267
143.11
141.385
139.418
138.64
138.719
140.986
143.603
142.866
133.988
124.672
104.706
68.3331
56.4564
56.4749
62.0563
81.1093
118.848
110.958
137.859
182.844
271.701
338.086
414.208
440.692
457.631
601.766
629.627
1136.95
1265.86
1801.27
1725.28
1635.4
848.298
602.57
728.563
533.793
304.385
262.633
208.273
75.0695
951.623
154.857
148.271
144.467
141.965
139.687
138.84
138.765
140.961
143.288
141.656
131.796
123.594
106.102
70.0135
57.1001
56.667
61.6686
79.4794
119.683
112.824
137.337
182.906
276.761
335.869
410.097
454.336
463.983
593.303
621.887
1159.38
1274.56
1772.91
1725.23
1669.96
840.384
616.566
737.929
544.99
309.605
267.166
216.115
85.8355
966.324
160.029
154.857
149.658
145.535
142.063
139.815
139.022
138.936
141.012
143.021
141.079
130.635
123.193
107.511
72.0938
57.7786
56.5975
61.9309
79.0376
119.916
112.927
137.768
183.221
281.388
333.386
405.804
470.927
472.472
585.928
620.676
1182.25
1281.9
1745.77
1729.89
1701.56
811.005
626.262
737.519
550.351
314.566
273.142
224.692
99.2236
981.969
162.997
158.761
154.933
150.179
146.439
142.057
139.841
139.143
139.152
141.044
143.016
140.166
129.001
122.975
108.734
74.5955
59.1384
57.0061
62.0706
79.2179
119.36
113.924
137.434
182.648
284.86
331.318
402.768
489.279
482.102
579.501
621.601
1204.11
1286.96
1720.43
1739.38
1738.31
796.107
631.251
732.482
550.146
319.371
281.006
234.328
115.416
998.415
169.633
164.883
161.327
157.671
154.637
150.654
146.629
142.003
139.833
139.179
139.196
140.949
143.025
139.813
128.399
122.924
110.245
77.4391
60.8134
57.429
61.9056
79.2628
120.132
115.715
137.773
183.02
287.432
332.282
401.686
510.844
492.662
576.534
623.535
1226.49
1290.45
1696.93
1748.56
1788.32
775.933
631.915
719.585
546.275
324.553
290.89
244.43
134.452
1015.31
238.292
173.158
167.577
163.153
159.895
156.57
154.218
150.684
146.588
141.968
139.83
139.105
139.089
141.095
143.008
139.342
127.781
122.999
111.158
80.6236
62.8697
57.7476
61.5039
79.0165
120.817
116.884
138.352
182.648
288.871
332.541
400.836
532.801
505.544
572.785
626.154
1247.1
1291.86
1674.66
1752.33
1861.04
755.303
630.715
699.365
537.954
329.783
302.971
255.225
155.949
1031.96
242.177
238.826
179.536
171.385
166.051
161.779
158.654
155.597
153.669
150.638
146.682
141.991
139.793
138.944
139.022
141.087
143.064
139.24
127.75
123.02
112.162
83.8362
64.8817
57.9445
61.7792
77.7692
121.505
115.936
138.641
183.001
289.746
330.014
400.899
552.881
515.733
565.828
630.706
1268.56
1293.17
1652.65
1753.21
1951.9
733.422
627.751
674.43
524.892
335.307
317.218
265.929
179.178
1047.16
246.206
242.62
239.07
184.69
178.237
170.161
164.686
160.697
157.788
154.84
153.121
150.603
146.503
141.854
139.724
138.665
138.811
141.343
143.104
139.158
127.708
123.017
112.587
86.945
67.0251
58.8694
61.8238
77.6626
121.73
117.571
138.468
183.237
290.129
329.256
404.458
567.841
526.753
561.827
634.326
1286.37
1293.48
1631.46
1747.21
2058.8
709.455
623.258
649.128
507.472
340.798
333.136
276.679
203.622
1059.78
255.018
249.528
243.913
238.773
191.7
183.617
177.348
169.305
163.862
160.085
157.114
154.148
152.477
150.555
146.422
141.778
139.499
138.201
138.645
141.666
143.07
139.251
127.7
122.839
113.157
89.7854
69.3269
59.577
61.949
77.654
121.078
118.537
139.43
183.297
287.028
329.446
410.11
578.852
533.929
564.548
641.747
1304.3
1293.88
1609.73
1735.89
2176.07
697.206
619.499
626.959
486.829
346.174
350.443
286.677
227.581
1067.9
267.159
257.833
251.287
243.748
238.589
201.803
197.548
190.935
182.598
176.474
168.697
163.016
159.683
156.692
153.722
152.024
150.278
146.46
141.757
139.064
137.534
138.391
141.86
143.203
139.507
127.772
122.562
113.314
92.4572
71.7215
60.1899
61.7353
77.382
121.845
119.919
139.961
182.939
286.191
329.257
416.883
586.42
542.217
568.312
648.083
1319.04
1294
1588.24
1719.95
2303.6
683.654
617.932
612.111
464.63
351.102
367.837
296.035
250.602
1071.29
275.569
266.872
257.891
251.499
244.358
238.88
203.239
201.246
196.92
190.222
181.563
175.808
168.231
162.573
159.618
156.349
153.269
151.405
149.737
146.225
141.567
138.425
136.684
138.145
142.119
143.388
139.986
127.873
122.34
113.479
94.7174
73.9999
60.7494
62.1637
77.4389
122.222
120.812
140.046
183.346
286.629
328.194
424.302
594.256
548.991
574.798
659.227
1330.78
1294.93
1565.89
1702.32
2435.19
682.129
619.721
606.897
443.003
354.799
384.75
304.174
271.098
1068.66
278.503
274.671
266.902
257.88
250.641
243.773
238.525
202.679
200.775
196.329
189.469
180.8
175.359
167.982
161.943
159.32
156.027
152.929
151.033
149.128
146.041
141.342
137.521
135.689
137.865
142.303
143.977
140.712
128.194
122.082
113.485
96.5369
76.4194
61.1541
62.4775
77.324
122.823
121.688
141.031
183.883
286.642
329.849
432.199
602.433
559.08
583.041
670.428
1341.91
1294.41
1544.09
1681.01
2558.42
686.89
625.651
610.638
423.952
357.292
399.586
311.297
287.525
1060.76
278.791
279.031
274.757
266.41
260.61
250.874
243.828
238.672
203.373
202.31
200.342
195.77
188.911
180.118
174.757
167.999
162.376
159.271
155.724
152.62
150.467
148.6
145.675
140.582
136.466
134.63
137.531
142.68
144.633
141.621
128.463
121.655
113.454
97.8508
78.5369
61.4168
62.6024
76.7725
124.078
124.95
142.032
184.434
285.093
331.621
441.533
612.285
567.777
593.978
686.272
1348.46
1293.56
1522.07
1659.97
2668.54
678.305
642.126
624.334
409.783
358.39
411.827
317.075
300.408
1046.04
276.603
279.75
279.617
274.433
268.026
261.562
250.257
243.82
238.418
203.603
203.166
201.968
199.856
195.144
188.334
179.597
175.009
169.321
162.622
159.22
155.373
152.314
150.182
147.955
144.64
139.519
135.272
133.559
137.189
143.185
145.389
142.625
128.747
121.267
113.278
98.7597
80.4697
61.3775
62.4877
77.0574
123.897
127.442
144.514
184.722
285.198
333.005
451.154
620.189
579.422
607.552
704.177
1353.16
1292.12
1501
1639.48
2736.27
685.853
672.759
655.123
402.516
356.207
420.323
321.798
308.675
1024.3
269.361
278.322
280.927
279.851
275.007
268.558
261.704
254.358
247.698
241.133
203.37
202.87
201.665
199.432
194.707
187.905
180.199
175.171
169.351
162.817
159.137
155.256
152.087
149.708
147.245
143.469
138.232
134.039
132.547
136.84
143.69
146.146
143.624
128.877
120.715
112.783
99.2913
81.9453
62.0794
62.9286
77.4438
123.077
130.075
146.963
186.348
285.69
333.037
462.946
628.748
588.934
622.914
724.791
1355.33
1290.22
1480.22
1622.8
2765.56
697.292
722.535
708.496
401.966
352.17
425.22
325.368
313.292
996.699
257.793
269.883
279.624
281.393
279.991
274.718
268.926
261.735
254.834
248.064
241.113
203.678
203.558
202.624
200.983
198.71
194.123
187.505
180.68
175.7
169.898
163.239
159.221
155.286
151.76
149.388
146.423
142.019
136.657
132.869
131.617
136.472
144.196
146.799
144.506
128.904
119.932
111.992
99.5531
83.2004
62.5752
63.5668
77.5541
123.602
130.312
149.152
188.368
285.348
336.728
474.069
633.713
598.197
639.999
748.709
1356.51
1287.49
1460.54
1603.39
2766.21
732.294
796.474
787.808
404.597
346.003
426.978
328.069
315.148
965.215
248.7
263.293
274.428
280.473
282.433
279.775
275.492
269.403
262.815
256.094
247.819
240.728
204.387
204.014
203.988
202.464
200.991
198.141
193.679
186.816
181.124
175.624
169.981
164.281
159.29
155.007
151.577
148.968
145.62
140.632
134.961
131.758
130.82
136.158
144.671
147.49
145.22
128.865
119.004
110.905
99.604
84.0259
63.3088
63.6512
77.639
123.997
133.294
151.667
191.057
286.937
338.243
488.072
639.695
605.803
659.16
773.95
1357.1
1284.06
1441.09
1582.37
2720.45
811.629
898.525
894.167
413.294
338.715
425.339
329.947
315.636
932.252
241.157
258.522
271.327
278.836
282.862
282.587
280.513
276.103
269.974
262.305
255.432
248.214
240.998
207.21
204.357
204.648
204.04
202.465
200.665
198.145
193.269
186.723
181.272
176.128
169.953
165.092
160.179
154.588
151.439
148.66
144.757
139.037
133.564
130.81
130.152
135.869
145.132
147.969
145.756
128.801
117.706
109.551
99.5506
84.7699
64.0219
64.024
77.7583
124.085
134.797
153.706
193.024
287.859
341.227
502.829
646.174
612.16
681.515
802.12
1359.49
1280.32
1423.23
1565.87
2637.79
912.545
1034.71
1022.97
434.802
331.657
420.764
331.204
315.916
900.002
230.91
249.305
267.526
279.501
283.052
283.318
282.681
280.222
275.154
269.296
262.269
254.795
247.62
240.358
216.365
210.484
206.47
205.102
205.074
204.014
202.222
200.113
197.77
192.827
186.353
181.12
175.964
170.116
165.774
160.522
154.529
151.222
148.322
143.95
137.613
132.345
129.974
129.606
135.604
145.483
148.425
146.103
128.637
116.233
107.946
99.3484
85.1823
64.9032
64.8262
78.0526
124.821
137.107
156.253
195.889
287.962
345.932
519.497
650.873
617.903
702.815
830.088
1360.06
1275.26
1406.82
1559.91
2534.07
1085.85
1208.78
1165.91
472.555
325.392
413.255
332.033
316.231
870.092
220.687
238.818
258.796
276.08
282.535
283.42
283.25
282.665
280.279
275.958
269.378
263.45
256.868
248.667
239.75
227.309
221.479
214.994
208.84
205.813
205.398
205.245
203.949
202.154
200.043
197.693
192.089
187.288
181.43
176.26
171.274
165.633
161.054
154.712
150.942
147.996
143.13
136.058
131.175
129.292
129.141
135.344
145.753
148.61
146.263
128.288
114.373
106.082
98.7697
85.6826
65.8214
65.7055
78.6457
124.825
138.797
158.505
198.819
289.715
350.617
535.061
661.782
623.95
730.452
860.918
1364.77
1270.94
1391.26
1584.72
2400
1336.35
1424.01
1314.27
528.947
321.414
403.54
332.683
316.608
843.629
211.357
228.237
249.214
266.579
279.013
282.591
283.395
283.302
281.675
278.71
275.184
270.333
263.748
256.892
248.649
241.078
233.054
226.579
220.096
213.851
208.682
205.922
205.776
205.343
203.987
201.926
199.959
197.43
192.498
187.2
181.86
176.328
171.707
166
161.319
154.704
150.572
147.651
142.418
134.745
130.342
128.7
128.766
135.043
145.905
148.792
146.235
127.636
112.343
103.891
97.7072
85.912
66.9017
66.4812
79.4564
124.379
140.902
161.369
202.302
291.303
355.203
553.001
668.453
629.816
757.088
888.831
1367.94
1264.7
1377.43
1658.21
2252.88
1642.17
1666.19
1462.05
605.547
320.243
392.271
333.583
316.969
821.328
202.583
219.091
236.761
255.105
269.991
280.165
282.699
283.182
282.051
279.068
276.542
272.05
267.333
263.671
257.776
248.681
241.404
232.617
224.679
218.766
211.585
207.642
205.913
205.906
205.434
203.98
201.923
199.853
197.566
192.822
186.909
181.324
176.491
172.036
165.833
161.658
155.586
150.604
147.266
141.758
133.512
129.519
128.232
128.479
134.746
146.015
148.548
145.988
126.574
109.863
101.393
96.0907
86.2737
68.0291
67.0348
79.8413
124.778
142.974
163.935
206.19
295.223
360.606
567.64
680.255
637.723
787.965
918.466
1376.8
1259.77
1367.95
1798.03
2102.28
1934.8
1904.27
1602.45
702.887
321.064
380.863
334.851
317.212
803.862
193.392
206.985
227.523
242.339
258.962
270.044
281.184
282.108
281.854
279.613
276.91
273.47
268.8
264.977
262.322
257.063
249.624
241.72
231.386
222.888
215.709
210.168
207.203
206.337
206.031
205.521
204.411
201.843
199.921
197.503
192.277
186.752
181.803
176.952
172.512
166.934
161.895
155.981
150.591
146.791
141.151
132.575
128.958
127.851
128.44
134.355
145.602
148.102
145.47
125.045
107.138
98.5361
93.9765
86.287
69.347
67.937
79.7894
122.686
145.133
167.156
210.066
296.657
364.708
581.732
691.433
644.382
820.908
943.002
1382.85
1253.34
1364.16
1987.4
1937.59
2133.37
2114.72
1723.05
820.596
324.6
370.476
336.615
317.573
791.99
184.473
197.542
215.429
232.471
247.977
263.509
273.884
280.122
281.374
280.048
277.2
273.311
269.462
266.017
263.719
260.363
256.395
250.152
240.42
231.903
223.1
213.645
208.716
206.816
206.516
206.209
205.723
204.566
201.692
200.139
197.527
192.521
186.606
181.672
176.757
172.811
167.657
162.289
156.991
151.127
146.302
140.613
131.806
128.482
127.576
128.47
133.967
144.879
147.369
144.538
122.986
103.923
95.3758
91.3995
85.7672
70.7121
69.664
80.5018
121.146
147.373
169.732
214.357
301.596
369.01
595.893
701.335
652.355
854.948
965.963
1394.26
1247.47
1364.51
2241.2
1772.98
2207.19
2294.17
1825.54
957.328
334.391
362.055
338.523
318.369
786.954
176.03
187.388
205.377
221.975
234.43
252.939
263.77
274.134
279.86
280.341
278.448
275.274
271.03
266.207
264.639
261.251
258.819
255.163
249.126
241.596
231.498
221.196
212.992
209.144
207.533
207.043
206.575
205.953
204.7
201.797
199.995
197.366
192.172
187.366
182.151
176.911
172.794
168.478
162.835
157.556
151.247
145.67
140.087
131.301
128.11
127.451
128.354
133.53
144.016
146.338
143.075
120.368
100.48
91.9312
88.5109
84.8169
72.3093
71.5448
81.9923
119.388
146.473
173
218.344
306.727
372.237
608.945
721.345
659.287
889.902
985.493
1404.23
1241.78
1368.36
2530.11
1630.48
2220.1
2429.41
1911.49
1110.41
353.469
356.265
340.533
319.791
786.758
169.687
179.048
193.328
208.771
221.257
238.548
253.214
265.729
277.433
280.925
279.28
275.798
272.283
267.15
265.122
262.868
260.689
257.106
253.881
248.746
240.755
231.673
221.846
212.121
209.053
208.281
207.434
206.933
206.257
204.908
202.009
199.91
197.114
192.319
187.102
182.129
177.287
172.901
169.057
163.642
158.563
151.491
145.061
139.663
130.882
127.914
127.438
128.403
133.177
143.048
144.93
141.015
117.214
96.6617
88.2574
85.4318
83.7247
73.9105
73.4454
82.6662
118.246
146.975
175.491
222.297
311.07
374.507
621.196
732.944
665.868
923.494
1000.62
1417.96
1234.75
1376.57
2792.06
1483.25
2182.53
2525.37
1978.68
1276.18
386.316
353.949
342.384
321.793
788.073
165.29
172.703
186.682
199.136
211.144
225.862
241.835
261.077
277.555
280.525
279.327
275.907
272.867
268.64
266.094
264.293
262.351
258.871
255.63
252.163
247.651
240.656
232.538
220.576
214.155
211.163
209.328
208.243
207.665
206.746
205.159
201.703
199.784
196.971
191.794
186.85
182.316
177.235
173.552
169.971
164.677
159.066
151.591
144.334
139.185
130.688
127.771
127.475
128.483
132.939
141.838
143.151
138.329
113.522
92.7836
84.5055
82.3809
82.2654
75.6951
75.7103
83.4469
116.627
147.469
178.417
225.914
309.792
378.379
631.996
758.824
674.955
950.749
1014.95
1433.2
1229.95
1389.3
2971.72
1347.43
2126.48
2592.63
2034.3
1450.93
439.5
354.799
343.546
323.98
794.421
160.198
165.628
177.165
190.525
199.129
215.785
233.544
253.189
273.134
279.828
279.21
276.148
273.143
269.773
267.146
265.29
263.138
260.629
257.702
255.008
251.492
246.94
240.7
231.039
221.22
215.385
212.94
210.7
209.143
208.394
207.327
205.442
202.344
199.589
196.946
191.718
186.618
182.001
177.706
173.77
170.404
165.698
160.077
151.743
143.775
138.783
130.411
127.765
127.522
128.501
133.002
140.432
141.05
135.079
109.382
88.7367
80.6694
79.4911
80.6371
77.4016
77.5833
83.8354
115.38
148.329
180.558
228.794
312.764
378.134
642.592
776.103
683.762
971.168
1025.11
1449.28
1222.33
1399.7
3045.97
1224.86
2045.21
2619.47
2080.59
1630.87
522.136
357.339
343.922
325.963
807.306
154.529
162.061
170.976
182.996
192.703
205.227
223.724
247.365
267.867
276.129
278.88
275.976
272.903
270.128
268.344
265.484
264.023
261.867
259.94
257.844
254.275
250.574
246.082
239.245
231.055
221.52
217.088
215.649
212.358
210.325
209.524
208.219
206.052
202.511
199.127
196.372
191.966
186.517
181.92
177.474
174.2
171.123
166.866
160.617
151.823
143.198
138.281
130.375
127.89
127.564
128.481
132.99
138.86
138.726
131.336
104.853
84.7849
76.9492
76.6995
79.0383
79.1692
79.345
84.4432
113.474
148.691
182.77
231.079
314.23
376.962
649.18
800.845
693.72
979.884
1036
1469.31
1217.65
1401.52
3039.65
1111.19
1926.86
2612.72
2117.5
1812.86
646.375
366.903
343.973
326.744
826.367
148.563
155.345
164.288
174.048
185.35
196.761
216.023
239.382
262.426
273.236
276.824
276.199
272.991
270.153
268.933
266.825
264.355
263.209
261.261
258.775
256.383
252.059
248.476
244.131
237.693
231.508
223.4
220.772
217.236
214.759
211.985
210.885
209.414
206.795
202.83
198.875
195.469
190.88
186.653
182.087
177.246
174.397
171.501
167.715
161.717
152.036
142.813
137.81
130.423
128.109
127.82
128.615
132.752
137.291
136.294
127.255
100.08
80.8593
73.4372
74.1231
77.6487
80.7491
80.9997
84.9832
112.176
149.386
184.318
232.256
315.384
368.276
653.016
808.312
701.281
982.13
1046.64
1488.45
1210.26
1396.73
2930.8
1021.57
1787.65
2595.89
2148.07
1993.44
825.552
388.075
344.142
325.696
850.087
142.132
149.282
157.466
169.387
175.007
188.824
209.182
232.391
252.585
267.592
275.349
276.121
273.68
270.749
269.247
267.459
265.403
263.989
262.692
260.753
257.898
255.314
251.013
247.194
242.832
235.789
231.542
224.64
222.196
219.871
217.139
213.935
212.686
211.072
208.098
203.067
198.236
193.512
189.38
185.573
181.517
177.593
174.336
172.141
168.747
162.414
152.277
142.443
137.228
130.812
128.482
128.232
128.876
132.775
135.938
133.879
122.976
95.1914
77.16
70.3049
71.7479
76.5166
82.2144
82.3959
85.2789
110.463
150.026
185.668
232.357
309.608
359.565
659.893
816.59
706.873
983.981
1055.73
1512.25
1204.84
1383.93
2747.88
949.128
1638.92
2539.18
2169.75
2168.58
1067.75
427.666
344.847
322.633
876.543
140.232
149.603
154.121
162.709
169.01
179.338
199.062
222.756
245.286
260.134
272.692
275.946
274.894
272.272
269.463
268.312
266.776
265.05
263.77
261.742
259.873
256.518
253.782
249.479
245.796
242.473
236.138
231.152
225.785
224.445
221.386
218.748
216.536
214.999
213.185
209.765
203.863
197.27
192.321
187.558
183.328
180.47
177.269
174.386
172.596
169.666
163.781
152.864
142.133
136.702
131.468
128.996
128.817
129.522
132.677
135.089
131.535
118.701
90.403
73.7194
67.6256
69.7505
75.5455
83.39
83.3986
85.644
108.554
149.881
186.53
227.425
301.308
353.538
662.567
810.981
714.118
982.627
1068.51
1534.62
1197.74
1363.3
2516.6
903.664
1467.54
2444.28
2182.74
2332.41
1373.4
496.792
346.663
316.639
903.742
138.568
146.946
154.429
156.043
164.731
170.9
190.911
213.39
235.142
255.434
269.733
276.106
275.718
273.771
271.622
269.006
267.523
266.201
265.064
263.536
261.985
259.339
256.593
253.593
249.205
245.911
241.904
234.852
230.077
227.851
225.561
223.533
221.249
219.15
217.747
215.789
212.2
205.428
197.338
191.407
186.607
182.465
178.885
177.172
174.749
173.269
170.821
164.855
153.765
141.971
136.206
132.036
129.72
129.556
130.348
132.964
134.929
129.344
114.546
85.8414
70.6619
65.547
68.4818
74.6658
84.2991
84.3386
84.1791
107.487
150.006
187.11
223.734
296.437
347.014
661.337
805.652
723.547
972.798
1076.06
1560.64
1191.86
1334.65
2274.74
866.779
1315.07
2320.29
2186.85
2479.56
1733.92
611.338
351.002
307.951
930.67
131.976
142.367
148.794
152.396
157.552
171.313
184.987
205.65
227.671
247.256
265.505
274.912
275.939
274.03
273.194
271.871
269.503
267.626
265.952
263.803
262.121
260.545
257.973
254.917
252.635
249.085
246.039
240.174
235.247
231.498
228.656
227.352
225.494
223.033
221.573
220.472
218.704
215.102
208.181
199.964
191.686
185.87
182.004
178.853
176.218
174.844
173.804
171.921
166.613
155.019
142.012
135.786
132.673
130.547
130.541
131.615
133.415
134.981
127.47
110.643
81.7607
68.0921
64.4107
68.2951
73.7908
84.9205
84.8826
83.754
107.286
149.936
187.605
216.858
292.611
340.31
660.355
792.205
732.936
960.484
1090.91
1585.32
1184.74
1299.13
2035.34
849.482
1180.9
2169.82
2165.91
2600.5
2120
789.683
360.496
297.761
955.821
128.13
137.524
142.872
145.141
152.845
164.202
177.991
198.241
219.256
239.346
260.045
271.528
275.237
274.508
273.394
273.204
272.559
269.951
267.41
264.915
262.987
261.281
259.608
256.811
254.549
251.998
248.369
244.677
240.217
235.13
232.143
229.691
228.417
226.911
225.252
223.706
222.819
221.532
218.367
212.418
203.376
194.28
187.107
181.906
178.57
176.131
174.96
174.434
173.346
168.202
156.658
141.959
135.511
133.04
131.573
131.844
133.185
134.373
135.069
125.984
107.061
78.2094
66.1083
64.2162
68.4676
72.9072
85.193
85.8402
83.0137
107.407
149.957
186.895
212.618
286.96
332.976
659.373
778.865
741.53
946.26
1100.65
1610.85
1178.06
1259.27
1816.51
838.951
1085.86
2011.3
2124.89
2685.92
2514.15
1047.71
379.575
288.471
979.353
127.23
133.927
139.375
141.668
146.072
160.296
168.761
190.519
208.692
228.868
250.359
266.058
271.768
274.191
274.12
273.495
273.259
271.37
269.401
267.399
265.623
263.367
261.335
259.427
256.801
254.446
250.865
246.93
243.833
240.769
235.499
233.025
230.654
229.699
228.291
226.755
226.107
225.251
224.164
221.693
216.371
208.265
198.423
189.637
183.486
178.938
176.759
175.515
175.278
174.675
170.498
158.597
142.861
135.517
133.537
132.665
133.435
135.067
136.478
135.524
124.945
103.882
75.2848
64.9566
64.3553
68.5321
71.9621
85.4645
84.5164
82.6866
106.935
149.147
183.642
208.344
281.068
326.309
655.703
772.433
746.752
935.644
1118.03
1637.05
1171.68
1217.2
1621.02
827.589
1039.48
1841.63
2062.74
2729.98
2901.56
1393.74
415.32
281.919
1000.73
126.178
129.498
133.306
137.495
142.563
153.435
160.734
179.464
197.546
218.529
242.324
257.832
268.36
272.357
273.791
273.94
273.234
271.72
269.67
268.526
267.389
265.7
263.391
260.97
259.12
256.867
253.45
249.907
246.755
242.804
239.823
235.624
233.497
231.957
230.958
230.112
228.994
227.775
227.058
226.375
224.674
220.074
213.471
204.124
193.98
185.648
180.549
177.68
176.544
176.463
176.669
172.683
160.794
143.222
136.075
133.857
133.856
135.301
137.616
138.947
136.719
124.297
101.165
72.9901
64.6854
64.3914
68.1633
70.9691
84.9596
83.2886
82.5215
106.38
149.578
184.406
205.799
277.806
322.243
654.167
759.112
751.29
925.221
1134.16
1658.1
1163.77
1176.29
1464.73
821.596
1028.1
1679.69
1984.5
2732.13
3247.16
1826.31
478.411
280.368
1019.91
126.449
127.079
129.832
134.337
141.712
146.792
154.076
171.199
186.409
208.686
231.114
249.389
259.151
268.541
271.852
273.341
273.035
271.821
270.445
268.949
267.731
265.757
264.556
263.334
260.304
258.106
255.65
253.267
249.955
246.659
242.872
239.006
235.807
234.234
233.551
232.954
232.128
230.971
230.135
228.876
228.038
226.892
223.61
217.893
210.102
199.93
189.354
182.422
178.947
177.887
178.174
178.613
175.466
162.913
144.232
136.652
134.522
134.992
137.41
140.688
141.983
138.779
124.039
98.8901
71.3095
64.7695
64.3768
68.296
69.9087
82.664
80.4584
82.7121
106.742
149.966
182.381
206.512
277.568
322.374
653.499
758.794
757.502
919.6
1156.74
1684.85
1157.83
1139.02
1328.19
816.45
1031.8
1525.64
1892.79
2683.58
3525.61
2331.4
583.704
281.66
1035.37
126.272
126.848
127.571
134.096
143.315
141.933
146.587
162.392
176.412
198.929
221.605
239.383
252.864
259.775
268.738
272.627
272.561
271.594
270.799
269.888
268.541
266.569
265.197
264.105
262.618
260.371
258.231
256.015
253.364
249.055
245.44
242.854
239.157
238.297
237.076
235.536
234.426
234.152
233.571
231.699
229.897
229.04
228.308
226.084
221.812
215.274
206.332
194.291
184.844
180.847