/*--------------------------------*- C++ -*----------------------------------*\
| =========                 |                                                 |
| \\      /  F ield         | OpenFOAM: The Open Source CFD Toolbox           |
|  \\    /   O peration     | Version:  2212                                  |
|   \\  /    A nd           | Website:  www.openfoam.com                      |
|    \\/     M anipulation  |                                                 |
\*---------------------------------------------------------------------------*/
FoamFile
{
    version     2.0;
    format      ascii;
    arch        "LSB;label=32;scalar=64";
    class       volScalarField;
    location    "30";
    object      nut;
}
// * * * * * * * * * * * * * * * * * * * * * * * * * * * * * * * * * * * * * //

dimensions      [0 2 -1 0 0 0 0];

internalField   nonuniform List<scalar> 
165000
(
1.54757e-13
1.15238e-12
1.55363e-13
1.1579e-12
9.22097e-13
1.55111e-13
9.04086e-13
8.49695e-13
7.59404e-13
1.53284e-13
7.30311e-13
5.83839e-13
6.53983e-13
6.81202e-13
1.53589e-13
5.77573e-13
4.13518e-13
4.55848e-13
5.48095e-13
6.10766e-13
1.53068e-13
5.19722e-13
3.68952e-13
3.41151e-13
4.27222e-13
5.31516e-13
6.11296e-13
1.53543e-13
5.53844e-13
3.14273e-13
3.71569e-13
3.61008e-13
3.98148e-13
4.98739e-13
5.81591e-13
1.5196e-13
5.50604e-13
3.25104e-13
3.12791e-13
4.26381e-13
3.45293e-13
3.88436e-13
4.70085e-13
5.36125e-13
1.50128e-13
5.77177e-13
3.61214e-13
3.21805e-13
3.44089e-13
4.50856e-13
3.72942e-13
3.86774e-13
4.52915e-13
4.90806e-13
1.46759e-13
5.68672e-13
3.98738e-13
3.56312e-13
3.49694e-13
3.58563e-13
4.82938e-13
3.88125e-13
3.75259e-13
4.53508e-13
4.66392e-13
1.41614e-13
5.32913e-13
3.90405e-13
3.60498e-13
3.5806e-13
3.81717e-13
3.9057e-13
4.26129e-13
4.10305e-13
3.72525e-13
4.46858e-13
4.71343e-13
1.38846e-13
5.0752e-13
3.64207e-13
3.7137e-13
3.50495e-13
3.63175e-13
4.66827e-13
3.96585e-13
3.98198e-13
4.30453e-13
3.73681e-13
4.41838e-13
4.98218e-13
1.37881e-13
4.83725e-13
3.66848e-13
3.65456e-13
3.64829e-13
3.62803e-13
3.76219e-13
4.85759e-13
4.22832e-13
3.80116e-13
4.44827e-13
3.94419e-13
4.4628e-13
5.50512e-13
1.37239e-13
5.5431e-13
3.65031e-13
3.61535e-13
3.64701e-13
3.63524e-13
3.74396e-13
3.69772e-13
4.85569e-13
3.95666e-13
3.83064e-13
4.67835e-13
4.47475e-13
4.76536e-13
5.48798e-13
1.34021e-13
6.71232e-13
4.24302e-13
3.74443e-13
3.57346e-13
3.56936e-13
3.58043e-13
3.72152e-13
3.82894e-13
4.39564e-13
3.87573e-13
4.0187e-13
5.4735e-13
4.72662e-13
5.5236e-13
5.5087e-13
1.28271e-13
5.13562e-13
4.27846e-13
4.24439e-13
4.06118e-13
3.59256e-13
3.67436e-13
3.56747e-13
3.6632e-13
3.58178e-13
3.81078e-13
3.88869e-13
4.25607e-13
6.86284e-13
5.01573e-13
5.85786e-13
5.31603e-13
1.2784e-13
3.36428e-13
3.66854e-13
4.38075e-13
4.12568e-13
4.15588e-13
3.62929e-13
3.61097e-13
3.52488e-13
3.59106e-13
3.62544e-13
3.32375e-13
3.96792e-13
4.80535e-13
7.33665e-13
5.38598e-13
5.9826e-13
5.19503e-13
1.25499e-13
5.00658e-13
2.76177e-13
3.5998e-13
4.62974e-13
3.97202e-13
4.0214e-13
3.54727e-13
3.55527e-13
3.50783e-13
3.66047e-13
3.57937e-13
3.29869e-13
4.2716e-13
4.67768e-13
7.07072e-13
5.95869e-13
5.28846e-13
4.97984e-13
1.21767e-13
7.1335e-13
3.41893e-13
2.89395e-13
3.30267e-13
4.92883e-13
3.91159e-13
3.63918e-13
3.54634e-13
3.53163e-13
3.50716e-13
3.47931e-13
3.43352e-13
3.30699e-13
3.88774e-13
4.84588e-13
6.04407e-13
6.08811e-13
4.79321e-13
4.55736e-13
1.19671e-13
9.80512e-13
4.42018e-13
3.15588e-13
3.28663e-13
3.6167e-13
5.32298e-13
3.92574e-13
3.41584e-13
3.5407e-13
3.50238e-13
3.46507e-13
3.50434e-13
3.42029e-13
3.32839e-13
3.5596e-13
4.51617e-13
5.51031e-13
6.18943e-13
4.76489e-13
4.88452e-13
1.18183e-13
4.5219e-13
6.51123e-13
4.2389e-13
3.10978e-13
3.44019e-13
4.10541e-13
5.37131e-13
4.17732e-13
3.34859e-13
3.66239e-13
3.39378e-13
3.42238e-13
3.4104e-13
3.42952e-13
3.58321e-13
3.73066e-13
4.20123e-13
5.13346e-13
5.54972e-13
4.8411e-13
5.39892e-13
1.16204e-13
3.09334e-13
2.96508e-13
5.85835e-13
3.86862e-13
3.22099e-13
3.80574e-13
4.20041e-13
5.44483e-13
4.09326e-13
3.36101e-13
3.49581e-13
3.4767e-13
3.41958e-13
3.40019e-13
3.31956e-13
3.50933e-13
3.77556e-13
4.19692e-13
4.61036e-13
4.99825e-13
5.14119e-13
5.08955e-13
1.13514e-13
7.37764e-13
2.53881e-13
2.58633e-13
5.56667e-13
4.06039e-13
3.5e-13
3.77259e-13
4.50689e-13
4.57255e-13
3.56941e-13
3.34677e-13
3.5448e-13
3.32138e-13
3.34668e-13
3.31869e-13
3.40375e-13
3.3232e-13
3.63853e-13
3.91854e-13
4.02269e-13
4.29149e-13
5.25573e-13
4.7035e-13
1.12645e-13
1.28613e-12
6.38988e-13
2.47674e-13
2.51583e-13
4.81372e-13
4.17233e-13
3.52422e-13
3.92421e-13
4.57888e-13
4.06093e-13
3.14081e-13
3.51854e-13
3.4017e-13
3.39512e-13
3.34295e-13
3.32495e-13
3.27038e-13
3.40662e-13
3.51742e-13
3.74273e-13
3.66828e-13
3.84998e-13
5.15145e-13
4.65034e-13
1.11827e-13
6.9245e-13
2.73055e-12
7.16705e-13
2.72308e-13
2.35342e-13
4.38746e-13
4.60162e-13
4.28804e-13
3.84495e-13
4.47217e-13
3.78877e-13
3.19597e-13
3.41994e-13
3.38983e-13
3.25849e-13
3.2874e-13
3.24973e-13
3.29289e-13
3.36858e-13
3.55468e-13
3.54546e-13
3.47891e-13
3.75759e-13
4.74376e-13
4.92174e-13
1.11196e-13
2.58705e-13
4.3774e-13
1.25135e-12
8.64446e-13
3.03514e-13
2.29887e-13
4.55985e-13
5.37623e-13
4.61045e-13
4.60509e-13
4.30031e-13
3.62083e-13
3.50604e-13
3.34327e-13
3.31547e-13
3.29816e-13
3.25971e-13
3.23221e-13
3.23363e-13
3.283e-13
3.44613e-13
3.36475e-13
3.28005e-13
3.47187e-13
4.27946e-13
4.37761e-13
1.08601e-13
4.74182e-13
2.14884e-13
4.21589e-13
2.32707e-12
2.09465e-12
3.09347e-13
2.63711e-13
5.45092e-13
6.25e-13
5.28716e-13
4.92717e-13
4.23543e-13
3.41545e-13
3.61451e-13
3.25098e-13
3.29512e-13
3.20295e-13
3.21191e-13
3.18921e-13
3.20991e-13
3.27419e-13
3.36783e-13
3.25982e-13
2.96798e-13
3.22502e-13
3.76295e-13
3.6368e-13
1.0842e-13
4.79317e-13
3.79499e-13
1.84905e-13
3.26578e-13
1.34714e-12
2.32687e-12
3.29579e-13
3.17537e-13
6.27922e-13
5.02686e-13
6.2932e-13
4.54628e-13
4.1998e-13
3.33924e-13
3.38497e-13
3.27358e-13
3.22232e-13
3.20592e-13
3.18162e-13
3.15011e-13
3.15579e-13
3.2182e-13
3.31306e-13
3.26769e-13
3.11668e-13
3.3242e-13
3.58974e-13
3.67204e-13
1.08999e-13
4.6441e-13
4.43404e-13
3.84379e-13
1.75491e-13
3.01012e-13
7.22073e-13
1.14235e-12
3.51714e-13
3.55311e-13
6.21779e-13
4.02524e-13
4.96266e-13
4.42527e-13
3.66689e-13
3.48058e-13
3.1902e-13
3.30939e-13
3.23219e-13
3.13746e-13
3.12961e-13
3.114e-13
3.13932e-13
3.18843e-13
3.26509e-13
3.29865e-13
3.36468e-13
3.41219e-13
3.54001e-13
3.54775e-13
1.09166e-13
3.14633e-13
3.78946e-13
4.88691e-13
3.8421e-13
1.6516e-13
2.4466e-13
7.23973e-13
8.13889e-13
3.84786e-13
3.4524e-13
4.52755e-13
3.84726e-13
4.03536e-13
4.16868e-13
3.29365e-13
3.42941e-13
3.41751e-13
3.18972e-13
3.13581e-13
3.12443e-13
3.10436e-13
3.08087e-13
3.08266e-13
3.12882e-13
3.16607e-13
3.28179e-13
3.55317e-13
3.54115e-13
3.56252e-13
3.48356e-13
1.06779e-13
1.16691e-12
2.95401e-13
3.38327e-13
5.53981e-13
4.03275e-13
1.71837e-13
2.42436e-13
3.59503e-13
6.59261e-13
4.40655e-13
4.21355e-13
4.20367e-13
4.00835e-13
3.72852e-13
3.95245e-13
3.21928e-13
3.45368e-13
3.21914e-13
3.22002e-13
3.15749e-13
3.06767e-13
3.05084e-13
3.03304e-13
3.05606e-13
3.11931e-13
3.18485e-13
3.25174e-13
3.31137e-13
3.52936e-13
3.88739e-13
3.54174e-13
1.03832e-13
5.02037e-13
7.6478e-13
2.93663e-13
2.9627e-13
5.61104e-13
5.07419e-13
1.93852e-13
2.13228e-13
2.73842e-13
6.8093e-13
6.37019e-13
7.60313e-13
5.77172e-13
4.17868e-13
3.75066e-13
3.33182e-13
3.37058e-13
3.48613e-13
3.19044e-13
3.16289e-13
3.05934e-13
3.04677e-13
3.02299e-13
3.00858e-13
3.01894e-13
3.04621e-13
3.08224e-13
3.21445e-13
3.0504e-13
3.23265e-13
3.70876e-13
3.37227e-13
1.01377e-13
3.028e-13
3.73888e-13
6.63849e-13
2.80203e-13
2.54623e-13
6.12241e-13
6.90978e-13
2.12835e-13
2.06233e-13
2.48205e-13
7.79427e-13
1.13228e-12
5.85207e-13
5.61795e-13
4.03009e-13
3.39003e-13
3.43198e-13
3.42126e-13
3.42458e-13
3.18611e-13
3.10171e-13
3.07598e-13
2.99497e-13
2.97443e-13
2.96049e-13
2.97857e-13
3.03651e-13
3.08288e-13
3.1311e-13
3.25603e-13
3.439e-13
3.53401e-13
3.60782e-13
9.9698e-14
3.65602e-13
2.33887e-13
3.58404e-13
5.04091e-13
2.98641e-13
2.38381e-13
7.96257e-13
5.94401e-13
2.40647e-13
1.98327e-13
2.3451e-13
5.75504e-13
8.85717e-13
5.75745e-13
6.06181e-13
4.12624e-13
3.00394e-13
3.53356e-13
3.39986e-13
3.25403e-13
3.08954e-13
3.09725e-13
2.98685e-13
2.96829e-13
2.94539e-13
2.93538e-13
2.94796e-13
2.97077e-13
3.00139e-13
3.13599e-13
3.12291e-13
3.37297e-13
3.39893e-13
3.49135e-13
9.87688e-14
4.39073e-13
3.27071e-13
2.44797e-13
3.36307e-13
5.39979e-13
2.99224e-13
2.2437e-13
8.81118e-13
5.67643e-13
2.93115e-13
2.20251e-13
2.85359e-13
4.6018e-13
9.07466e-13
5.86883e-13
4.98584e-13
3.83643e-13
3.16891e-13
3.72207e-13
3.19063e-13
3.23573e-13
3.08732e-13
3.01916e-13
2.98799e-13
2.92484e-13
2.90238e-13
2.88975e-13
2.90404e-13
2.94608e-13
2.98225e-13
3.03641e-13
3.10082e-13
3.29119e-13
3.38031e-13
3.43679e-13
9.76886e-14
8.20766e-13
3.25097e-13
3.06946e-13
1.93162e-13
3.88001e-13
4.01366e-13
2.98013e-13
2.31936e-13
7.24711e-13
5.45391e-13
3.77057e-13
3.02877e-13
3.81788e-13
5.83081e-13
5.79275e-13
5.08423e-13
4.3666e-13
3.53392e-13
3.12989e-13
3.84131e-13
3.18822e-13
3.21248e-13
3.02735e-13
2.99778e-13
2.91998e-13
2.89326e-13
2.86854e-13
2.85893e-13
2.87016e-13
2.89266e-13
2.92981e-13
3.04175e-13
3.07224e-13
3.25038e-13
3.31704e-13
3.40561e-13
9.56064e-14
3.54959e-12
8.52151e-13
2.90429e-13
3.67074e-13
2.11609e-13
3.88976e-13
3.406e-13
3.11877e-13
2.47201e-13
5.23731e-13
5.20999e-13
4.75426e-13
4.2303e-13
4.24189e-13
7.07414e-13
5.19214e-13
4.7853e-13
3.68423e-13
3.28875e-13
3.17071e-13
3.39478e-13
3.21185e-13
3.12766e-13
2.9871e-13
2.94905e-13
2.90268e-13
2.85257e-13
2.82792e-13
2.81617e-13
2.82753e-13
2.85996e-13
2.89618e-13
2.96686e-13
3.00438e-13
3.15178e-13
3.28621e-13
3.25256e-13
9.48871e-14
1.46827e-12
1.21547e-12
1.04971e-12
2.18473e-13
4.36936e-13
1.89798e-13
3.44054e-13
2.77911e-13
3.07463e-13
2.80457e-13
3.72403e-13
5.99109e-13
6.21333e-13
5.28503e-13
4.40416e-13
6.39344e-13
3.96847e-13
3.98408e-13
3.10309e-13
3.16926e-13
3.19199e-13
3.33346e-13
3.14686e-13
3.08177e-13
2.96304e-13
2.90504e-13
2.85002e-13
2.81648e-13
2.79059e-13
2.7804e-13
2.79302e-13
2.81843e-13
2.85618e-13
2.93603e-13
3.00514e-13
3.13771e-13
3.27459e-13
3.32725e-13
9.31042e-14
1.45844e-12
1.00439e-12
2.35672e-12
8.94328e-13
2.18034e-13
8.24542e-13
1.80552e-13
3.98722e-13
2.51034e-13
3.29714e-13
3.39079e-13
3.34018e-13
7.74028e-13
6.60136e-13
6.15427e-13
4.52995e-13
4.15494e-13
3.96509e-13
3.51826e-13
3.26391e-13
3.10486e-13
3.05987e-13
3.23016e-13
3.05129e-13
3.04267e-13
2.9071e-13
2.87139e-13
2.81855e-13
2.77625e-13
2.75046e-13
2.74263e-13
2.75635e-13
2.78151e-13
2.81757e-13
2.89542e-13
2.91833e-13
3.05968e-13
3.18974e-13
3.14305e-13
9.18559e-14
1.44498e-12
1.06174e-12
4.17812e-13
8.15905e-13
1.01899e-12
1.88315e-13
7.93946e-13
1.72011e-13
4.02e-13
2.55323e-13
3.72696e-13
3.98129e-13
3.30217e-13
6.84528e-13
6.20067e-13
7.08666e-13
4.70207e-13
3.15655e-13
3.81268e-13
3.19644e-13
3.65385e-13
3.1599e-13
3.17791e-13
3.147e-13
3.07665e-13
2.97797e-13
2.88298e-13
2.82003e-13
2.77354e-13
2.73732e-13
2.71457e-13
2.70897e-13
2.72034e-13
2.74226e-13
2.78127e-13
2.84802e-13
2.92375e-13
3.03006e-13
3.11321e-13
3.18322e-13
9.06746e-14
3.7094e-13
2.69439e-12
9.73325e-13
3.88973e-13
5.77653e-13
5.27737e-13
1.78394e-13
9.81357e-13
1.51813e-13
2.83312e-13
2.47373e-13
3.58939e-13
5.03912e-13
3.33025e-13
6.32881e-13
6.7129e-13
7.82451e-13
4.61571e-13
3.54187e-13
3.42505e-13
3.066e-13
3.5596e-13
3.06282e-13
3.14249e-13
3.0574e-13
2.95974e-13
2.93362e-13
2.83082e-13
2.78644e-13
2.73502e-13
2.70003e-13
2.67919e-13
2.67249e-13
2.68332e-13
2.70617e-13
2.74481e-13
2.81437e-13
2.84792e-13
2.97426e-13
3.08867e-13
3.0778e-13
8.91407e-14
7.41755e-13
3.75284e-13
1.13388e-12
9.36385e-13
2.74069e-13
3.47107e-13
5.84582e-13
1.66467e-13
7.55368e-13
1.39518e-13
3.59353e-13
2.46685e-13
3.96422e-13
6.80564e-13
3.58617e-13
3.72268e-13
4.904e-13
7.13109e-13
4.34834e-13
3.2922e-13
3.03488e-13
3.46312e-13
3.49549e-13
3.2742e-13
3.04562e-13
2.99473e-13
2.94941e-13
2.88356e-13
2.79628e-13
2.73705e-13
2.69573e-13
2.66446e-13
2.64321e-13
2.63681e-13
2.64851e-13
2.67025e-13
2.70873e-13
2.76978e-13
2.83478e-13
2.92445e-13
3.01798e-13
3.04358e-13
8.81179e-14
3.53328e-13
6.68036e-13
3.41028e-13
5.54348e-13
5.4497e-13
2.41356e-13
2.7609e-13
3.16868e-13
1.4993e-13
4.8315e-13
1.37571e-13
7.04455e-13
2.90738e-13
3.9801e-13
7.4008e-13
4.19399e-13
2.92949e-13
4.61632e-13
6.2403e-13
3.95597e-13
2.95329e-13
3.15382e-13
3.52688e-13
3.4386e-13
3.22834e-13
3.04668e-13
2.97838e-13
2.88305e-13
2.82793e-13
2.74924e-13
2.70234e-13
2.65922e-13
2.62759e-13
2.60681e-13
2.60238e-13
2.61396e-13
2.63451e-13
2.67341e-13
2.7332e-13
2.77932e-13
2.88728e-13
2.97328e-13
2.99623e-13
8.6652e-14
4.008e-13
3.65133e-13
5.78058e-13
2.36311e-13
4.73208e-13
4.96304e-13
2.98533e-13
2.40607e-13
2.39425e-13
1.42145e-13
3.39397e-13
1.48743e-13
1.4385e-12
3.81232e-13
5.43311e-13
9.70384e-13
6.55367e-13
3.1125e-13
4.40322e-13
4.23764e-13
3.89343e-13
2.70751e-13
3.31659e-13
3.07602e-13
3.21256e-13
2.99188e-13
3.02604e-13
2.87958e-13
2.83699e-13
2.78479e-13
2.71115e-13
2.6606e-13
2.62127e-13
2.5906e-13
2.57233e-13
2.56865e-13
2.57929e-13
2.59991e-13
2.63762e-13
2.69317e-13
2.75125e-13
2.83208e-13
2.9229e-13
2.93672e-13
8.5585e-14
6.41015e-13
9.29723e-13
4.38262e-13
3.59066e-13
3.48795e-13
3.59168e-13
4.74127e-13
2.56408e-13
2.28442e-13
2.30547e-13
1.33372e-13
2.03444e-13
1.7377e-13
8.21763e-13
3.82782e-13
5.33421e-13
1.26262e-12
6.28896e-13
2.91527e-13
4.08397e-13
4.49755e-13
3.80509e-13
2.96841e-13
3.56149e-13
3.1054e-13
3.2863e-13
3.06682e-13
2.95559e-13
2.88936e-13
2.79231e-13
2.73289e-13
2.67035e-13
2.6238e-13
2.58329e-13
2.55531e-13
2.53824e-13
2.53455e-13
2.5456e-13
2.56479e-13
2.60262e-13
2.65544e-13
2.70736e-13
2.79772e-13
2.87777e-13
2.90009e-13
8.42637e-14
4.81107e-13
6.33961e-13
2.41342e-12
4.83667e-13
3.22205e-13
3.47014e-13
3.42557e-13
4.0184e-13
2.87153e-13
2.23381e-13
2.68062e-13
1.42682e-13
1.50784e-13
2.29685e-13
6.73166e-13
4.75373e-13
3.59527e-13
9.18001e-13
4.94719e-13
3.2325e-13
3.58312e-13
4.93457e-13
3.57664e-13
3.44802e-13
3.41109e-13
3.11097e-13
2.99087e-13
2.9469e-13
2.91311e-13
2.79075e-13
2.74319e-13
2.69289e-13
2.6309e-13
2.58338e-13
2.54705e-13
2.52053e-13
2.50399e-13
2.50148e-13
2.51126e-13
2.5306e-13
2.56739e-13
2.61792e-13
2.67437e-13
2.74906e-13
2.82767e-13
2.8448e-13
8.31559e-14
1.38625e-13
6.01204e-13
4.95285e-13
7.28475e-13
5.7925e-13
2.82827e-13
3.83206e-13
2.60299e-13
3.67267e-13
2.8688e-13
2.04165e-13
3.89599e-13
1.74409e-13
1.36425e-13
2.98956e-13
1.63341e-12
4.86376e-13
3.06678e-13
4.65506e-13
6.00117e-13
3.17229e-13
3.18215e-13
4.32952e-13
3.28543e-13
3.86235e-13
3.17259e-13
3.02721e-13
3.05464e-13
2.91225e-13
2.84291e-13
2.78748e-13
2.70322e-13
2.64638e-13
2.5902e-13
2.54677e-13
2.5113e-13
2.48555e-13
2.47068e-13
2.46768e-13
2.47771e-13
2.4962e-13
2.53303e-13
2.58223e-13
2.63602e-13
2.71147e-13
2.7869e-13
2.80631e-13
8.19433e-14
1.43275e-13
1.53966e-13
6.27224e-13
4.83144e-13
5.08556e-13
5.23805e-13
2.71804e-13
2.97588e-13
2.38609e-13
3.06666e-13
3.02154e-13
1.9244e-13
5.81784e-13
2.61471e-13
1.49874e-13
3.86608e-13
7.13171e-13
3.59428e-13
2.46485e-13
4.30313e-13
7.65956e-13
2.73746e-13
3.11544e-13
3.65496e-13
3.56161e-13
3.64981e-13
3.02935e-13
3.045e-13
2.97238e-13
2.85949e-13
2.81328e-13
2.71071e-13
2.65732e-13
2.60473e-13
2.55166e-13
2.50954e-13
2.4755e-13
2.45159e-13
2.43673e-13
2.4346e-13
2.44384e-13
2.46284e-13
2.49997e-13
2.54669e-13
2.60104e-13
2.66842e-13
2.73969e-13
2.75793e-13
8.08279e-14
3.68569e-13
1.36155e-13
1.70385e-13
2.62003e-13
5.53428e-13
5.45717e-13
3.872e-13
2.41026e-13
2.54733e-13
1.85996e-13
3.10967e-13
2.6124e-13
1.86001e-13
4.44038e-13
6.38805e-13
1.95188e-13
4.37375e-13
4.82106e-13
3.53706e-13
2.40465e-13
4.09858e-13
6.69995e-13
2.67754e-13
3.34734e-13
3.4865e-13
3.89454e-13
3.14638e-13
2.88904e-13
2.98766e-13
2.8925e-13
2.81543e-13
2.74145e-13
2.68793e-13
2.61594e-13
2.56256e-13
2.51346e-13
2.47296e-13
2.4407e-13
2.417e-13
2.40348e-13
2.40116e-13
2.411e-13
2.4308e-13
2.46682e-13
2.5118e-13
2.5645e-13
2.62987e-13
2.69925e-13
2.71755e-13
7.96847e-14
2.29752e-13
4.26869e-13
1.25459e-13
1.93732e-13
1.37842e-13
5.6145e-13
3.3673e-13
5.0364e-13
1.71548e-13
2.40052e-13
1.59937e-13
3.023e-13
3.05133e-13
1.84099e-13
3.37446e-13
1.02898e-12
2.53359e-13
4.66699e-13
6.00136e-13
7.51598e-13
2.51149e-13
3.05862e-13
4.46137e-13
2.90766e-13
3.25697e-13
3.0661e-13
4.00936e-13
3.24787e-13
2.9636e-13
2.90554e-13
2.86361e-13
2.77074e-13
2.70686e-13
2.62866e-13
2.57282e-13
2.52282e-13
2.47542e-13
2.43703e-13
2.40542e-13
2.38321e-13
2.36987e-13
2.36873e-13
2.37942e-13
2.39872e-13
2.43423e-13
2.47677e-13
2.52911e-13
2.59006e-13
2.65605e-13
2.67522e-13
7.85846e-14
3.33081e-13
2.20335e-13
3.66591e-13
7.34539e-14
2.66828e-13
9.77028e-14
4.72617e-13
3.02647e-13
3.46939e-13
1.57812e-13
3.03983e-13
1.61559e-13
2.50272e-13
4.22691e-13
1.92296e-13
2.41905e-13
7.34274e-13
2.41615e-13
6.2107e-13
8.06341e-13
6.74854e-13
2.1522e-13
2.31599e-13
3.46305e-13
3.77383e-13
3.28484e-13
2.99846e-13
3.65811e-13
3.25351e-13
2.91345e-13
2.88529e-13
2.79732e-13
2.71059e-13
2.65575e-13
2.59333e-13
2.53289e-13
2.48265e-13
2.43837e-13
2.40087e-13
2.37091e-13
2.34902e-13
2.33733e-13
2.33748e-13
2.34775e-13
2.36725e-13
2.40095e-13
2.44221e-13
2.49386e-13
2.55232e-13
2.61781e-13
2.63557e-13
7.75004e-14
1.97016e-13
2.54812e-13
1.1865e-13
7.11751e-13
6.15632e-14
2.07291e-13
7.59468e-14
2.62738e-13
3.43311e-13
2.22447e-13
1.62847e-13
3.22127e-13
1.59521e-13
2.43443e-13
8.71915e-13
2.14675e-13
1.74957e-13
7.84254e-13
2.6689e-13
6.59477e-13
8.43613e-13
6.95453e-13
2.31798e-13
2.20718e-13
2.83336e-13
4.27369e-13
2.97002e-13
3.11804e-13
3.43116e-13
3.05346e-13
2.90181e-13
2.81282e-13
2.74453e-13
2.68566e-13
2.60434e-13
2.54602e-13
2.49129e-13
2.44415e-13
2.40102e-13
2.36536e-13
2.33611e-13
2.31603e-13
2.30594e-13
2.30612e-13
2.31669e-13
2.3349e-13
2.36806e-13
2.4084e-13
2.45922e-13
2.51707e-13
2.57873e-13
2.59635e-13
7.64391e-14
2.55747e-13
2.28507e-13
5.72601e-13
9.39557e-14
9.41935e-13
5.29199e-14
1.879e-13
8.53007e-14
2.50326e-13
3.12398e-13
1.58844e-13
1.9215e-13
3.55301e-13
1.95262e-13
4.25668e-13
9.71724e-13
3.26778e-13
1.72158e-13
6.34789e-13
3.62163e-13
4.8034e-13
9.29284e-13
2.26757e-12
2.79156e-13
2.16838e-13
2.40073e-13
4.43732e-13
2.88386e-13
3.26661e-13
3.17883e-13
3.02779e-13
2.83965e-13
2.77061e-13
2.70152e-13
2.61104e-13
2.5691e-13
2.50549e-13
2.45208e-13
2.40526e-13
2.36445e-13
2.32969e-13
2.30243e-13
2.28412e-13
2.27446e-13
2.27537e-13
2.28462e-13
2.30298e-13
2.3358e-13
2.3749e-13
2.428e-13
2.4825e-13
2.54079e-13
2.55849e-13
7.53928e-14
2.09444e-13
2.44101e-13
1.57458e-13
9.8249e-13
8.12183e-14
3.63968e-13
4.94871e-14
2.19068e-13
8.62653e-14
2.66678e-13
3.97575e-13
1.32644e-13
2.33556e-13
4.37818e-13
2.19322e-13
4.33671e-13
5.23856e-13
6.97939e-13
1.94392e-13
3.5695e-13
6.75766e-13
4.71236e-13
7.83266e-13
9.41252e-13
3.17889e-13
2.16716e-13
2.75158e-13
4.73891e-13
3.00388e-13
3.23597e-13
3.07172e-13
2.92113e-13
2.80446e-13
2.7191e-13
2.64153e-13
2.59285e-13
2.51434e-13
2.46318e-13
2.41178e-13
2.36742e-13
2.32763e-13
2.29507e-13
2.26989e-13
2.25219e-13
2.24362e-13
2.2435e-13
2.25297e-13
2.27171e-13
2.30362e-13
2.34564e-13
2.3968e-13
2.44692e-13
2.50387e-13
2.52103e-13
7.43667e-14
3.37457e-13
1.80025e-13
4.49823e-13
1.71928e-13
5.8717e-13
6.82642e-14
2.90848e-13
6.09785e-14
2.6111e-13
8.42004e-14
3.55143e-13
3.99786e-13
1.30303e-13
2.17156e-13
2.62006e-13
2.38728e-13
3.69979e-13
3.81937e-13
5.5181e-13
1.71443e-13
2.68575e-13
9.00679e-13
3.87434e-13
5.22315e-13
8.38038e-13
4.9515e-13
2.14749e-13
3.20027e-13
3.46674e-13
3.24537e-13
2.98598e-13
3.03431e-13
2.85776e-13
2.74033e-13
2.66297e-13
2.6024e-13
2.52329e-13
2.47997e-13
2.42194e-13
2.37299e-13
2.32938e-13
2.29207e-13
2.26167e-13
2.23727e-13
2.22093e-13
2.21163e-13
2.21202e-13
2.222e-13
2.2404e-13
2.27605e-13
2.31624e-13
2.36352e-13
2.41327e-13
2.46765e-13
2.48558e-13
7.33585e-14
9.43324e-14
3.37174e-13
1.67918e-13
2.41284e-13
2.20263e-13
1.20417e-13
7.02456e-14
1.76011e-13
7.14034e-14
3.86683e-13
9.09227e-14
2.80666e-13
2.96359e-13
1.43821e-13
2.54844e-13
2.78459e-13
2.60882e-13
2.8113e-13
4.98984e-13
4.98451e-13
2.30267e-13
1.97122e-13
5.22187e-13
3.47474e-13
3.71375e-13
4.64128e-13
7.02516e-13
2.36005e-13
2.80024e-13
2.81939e-13
2.95748e-13
3.05584e-13
2.85714e-13
2.77218e-13
2.69034e-13
2.62061e-13
2.54755e-13
2.49713e-13
2.43054e-13
2.38144e-13
2.33369e-13
2.2927e-13
2.25768e-13
2.22818e-13
2.20544e-13
2.18856e-13
2.18004e-13
2.18126e-13
2.1909e-13
2.21402e-13
2.24816e-13
2.28408e-13
2.33238e-13
2.37995e-13
2.4334e-13
2.45097e-13
7.23731e-14
4.96849e-14
9.42054e-14
7.32187e-13
2.17395e-13
2.28732e-13
1.52589e-13
6.72349e-14
7.11045e-14
1.46584e-13
8.73683e-14
2.68776e-13
8.54558e-14
2.53126e-13
1.97908e-13
1.89486e-13
6.54018e-13
3.36248e-13
2.49714e-13
2.49738e-13
2.46435e-13
8.42252e-13
2.73122e-13
1.65359e-13
4.55171e-13
5.50633e-13
2.89786e-13
2.88568e-13
4.9375e-13
3.61318e-13
3.19834e-13
3.18384e-13
2.86636e-13
2.87742e-13
2.8278e-13
2.73346e-13
2.63973e-13
2.56352e-13
2.50613e-13
2.44006e-13
2.39297e-13
2.34086e-13
2.2959e-13
2.25713e-13
2.22322e-13
2.19555e-13
2.17244e-13
2.15655e-13
2.14919e-13
2.15029e-13
2.16498e-13
2.18724e-13
2.21685e-13
2.25443e-13
2.3014e-13
2.34875e-13
2.40002e-13
2.41618e-13
7.14074e-14
1.11321e-13
4.95244e-14
1.37144e-13
2.34977e-13
2.94803e-13
1.64293e-13
2.10544e-13
6.37249e-14
8.30994e-14
9.1178e-14
1.08199e-13
2.61738e-13
7.91812e-14
2.25409e-13
1.60367e-13
4.03992e-13
6.45034e-13
3.96956e-13
2.89222e-13
2.50787e-13
2.26652e-13
1.09499e-12
4.57536e-13
1.5392e-13
2.36214e-13
3.7305e-13
2.47861e-13
2.49433e-13
3.46951e-13
5.42558e-13
3.96877e-13
3.03745e-13
2.72464e-13
2.75555e-13
2.73266e-13
2.64633e-13
2.582e-13
2.52204e-13
2.45711e-13
2.40522e-13
2.34855e-13
2.30178e-13
2.25916e-13
2.2216e-13
2.18965e-13
2.16181e-13
2.13984e-13
2.12536e-13
2.11813e-13
2.12457e-13
2.13857e-13
2.1566e-13
2.18827e-13
2.22495e-13
2.27253e-13
2.31827e-13
2.36584e-13
2.38368e-13
7.04576e-14
5.53046e-14
2.92324e-13
5.12593e-14
2.09343e-13
1.18456e-13
3.32846e-13
1.86621e-13
2.81883e-13
5.37338e-14
1.16471e-13
9.49859e-14
8.44318e-14
1.98803e-13
8.30166e-14
1.65544e-13
1.35462e-13
1.05382e-12
3.76277e-13
8.28303e-13
3.30035e-13
3.43216e-13
2.2943e-13
6.09614e-13
4.54626e-13
1.76287e-13
1.94136e-13
3.91182e-13
2.51296e-13
2.41358e-13
3.01409e-13
3.35348e-13
3.56158e-13
2.68549e-13
2.74777e-13
2.76184e-13
2.67087e-13
2.61462e-13
2.53781e-13
2.46953e-13
2.41434e-13
2.35719e-13
2.30969e-13
2.26381e-13
2.22256e-13
2.18707e-13
2.15522e-13
2.12851e-13
2.10804e-13
2.09393e-13
2.09229e-13
2.09834e-13
2.10809e-13
2.12885e-13
2.1598e-13
2.19771e-13
2.24424e-13
2.28626e-13
2.33386e-13
2.35021e-13
6.95222e-14
3.52092e-14
4.43293e-14
2.88177e-13
3.57744e-14
2.27661e-13
7.26719e-14
2.71301e-13
1.15828e-13
6.65562e-13
5.08999e-14
9.76196e-14
8.69644e-14
8.0774e-14
1.32598e-13
8.29998e-14
1.84269e-13
1.27824e-13
2.68736e-13
2.044e-13
7.01518e-13
2.47351e-13
6.12788e-13
2.44482e-13
5.0783e-13
3.23286e-13
2.54772e-13
2.21837e-13
3.80709e-13
3.01124e-13
2.63928e-13
3.61628e-13
2.74098e-13
3.07516e-13
2.81498e-13
2.73131e-13
2.65619e-13
2.62108e-13
2.54103e-13
2.48278e-13
2.42684e-13
2.36894e-13
2.31852e-13
2.26978e-13
2.22603e-13
2.18701e-13
2.15178e-13
2.12115e-13
2.09612e-13
2.0761e-13
2.06764e-13
2.06595e-13
2.06792e-13
2.08057e-13
2.10118e-13
2.13365e-13
2.17104e-13
2.21368e-13
2.25627e-13
2.30117e-13
2.31959e-13
6.86112e-14
1.90016e-13
3.66151e-14
3.45799e-14
2.71976e-13
3.34909e-14
1.78147e-13
3.73706e-14
1.67105e-12
2.2848e-13
3.06049e-13
4.35432e-14
7.31869e-14
8.41485e-14
8.84379e-14
1.31859e-13
8.74468e-14
2.80516e-13
1.66181e-13
4.78407e-13
2.396e-13
4.17634e-13
2.94202e-13
4.52858e-13
2.1573e-13
2.31766e-13
4.20956e-13
3.73153e-13
1.98636e-13
2.69451e-13
4.16587e-13
2.93446e-13
4.80993e-13
3.10749e-13
2.79781e-13
2.68686e-13
2.62453e-13
2.61776e-13
2.55239e-13
2.50313e-13
2.43885e-13
2.37888e-13
2.32668e-13
2.27671e-13
2.23127e-13
2.18941e-13
2.15085e-13
2.11687e-13
2.08811e-13
2.06357e-13
2.04912e-13
2.04093e-13
2.03544e-13
2.04049e-13
2.05317e-13
2.07589e-13
2.108e-13
2.14156e-13
2.18497e-13
2.22578e-13
2.27148e-13
2.2888e-13
6.77095e-14
1.55775e-13
9.14432e-14
3.87511e-14
2.44699e-14
3.58223e-12
3.56256e-14
1.3484e-13
3.00592e-14
4.54577e-13
1.81717e-13
3.15922e-13
4.56602e-14
1.12175e-13
9.10156e-14
8.50114e-14
1.26541e-13
9.8271e-14
5.36158e-13
1.84865e-13
4.26207e-13
1.86195e-13
2.59868e-12
3.28222e-13
3.19889e-13
2.18494e-13
1.69394e-13
3.76943e-13
4.06907e-13
1.63523e-13
2.40122e-13
3.78109e-13
2.71012e-13
5.11072e-13
2.64735e-13
2.85048e-13
2.71883e-13
2.66675e-13
2.5708e-13
2.51198e-13
2.44417e-13
2.38896e-13
2.33609e-13
2.28495e-13
2.23749e-13
2.19339e-13
2.15233e-13
2.11509e-13
2.08307e-13
2.05494e-13
2.03585e-13
2.02182e-13
2.0101e-13
2.00788e-13
2.0132e-13
2.02818e-13
2.05106e-13
2.07915e-13
2.11385e-13
2.15596e-13
2.19833e-13
2.24115e-13
2.25805e-13
6.68296e-14
4.75675e-13
1.18632e-13
6.18376e-14
4.16021e-14
2.4562e-14
3.86945e-13
2.80835e-14
1.9551e-13
2.63694e-14
2.52914e-13
2.16428e-13
1.89685e-13
4.49831e-14
1.15291e-13
7.09859e-14
9.14442e-14
1.2959e-13
1.2034e-13
4.91755e-13
1.58976e-13
3.29842e-13
4.70809e-13
5.65226e-13
3.08236e-13
3.88905e-13
2.44659e-13
1.53341e-13
3.11884e-13
3.53458e-13
1.60356e-13
2.27648e-13
3.3499e-13
3.07744e-13
3.60343e-13
2.50458e-13
2.64389e-13
2.60807e-13
2.52915e-13
2.502e-13
2.45127e-13
2.40114e-13
2.34508e-13
2.29269e-13
2.24392e-13
2.19839e-13
2.15551e-13
2.11563e-13
2.08048e-13
2.04925e-13
2.02641e-13
2.00785e-13
1.99057e-13
1.98221e-13
1.98049e-13
1.9883e-13
2.00366e-13
2.02276e-13
2.05197e-13
2.08607e-13
2.13006e-13
2.16969e-13
2.21115e-13
2.22947e-13
6.59624e-14
3.43502e-14
1.61561e-13
1.15549e-13
6.52635e-14
4.14577e-14
2.84406e-14
3.96864e-13
2.73451e-14
1.83413e-13
2.26587e-14
1.41999e-13
2.08004e-13
3.13915e-13
4.17353e-14
1.38707e-13
6.25566e-14
9.92568e-14
1.03444e-13
2.62121e-13
5.87145e-13
1.54416e-13
2.82155e-13
5.25714e-13
7.17198e-13
3.50175e-13
3.4096e-13
2.31607e-13
1.54051e-13
3.57721e-13
4.1534e-13
1.69374e-13
2.42291e-13
2.60593e-13
3.71989e-13
2.94429e-13
2.66001e-13
2.64171e-13
2.60106e-13
2.54549e-13
2.46884e-13
2.40899e-13
2.35123e-13
2.30035e-13
2.2508e-13
2.20413e-13
2.15973e-13
2.11786e-13
2.08016e-13
2.04593e-13
2.01976e-13
1.99766e-13
1.97615e-13
1.96219e-13
1.95449e-13
1.95546e-13
1.96386e-13
1.97551e-13
1.99601e-13
2.02491e-13
2.06149e-13
2.10245e-13
2.14161e-13
2.18335e-13
2.20099e-13
6.51135e-14
4.26826e-14
2.93037e-14
8.5614e-14
6.95101e-14
6.3399e-14
4.32854e-14
3.56318e-14
1.21637e-12
2.31986e-14
1.63975e-13
2.24081e-14
2.66289e-13
1.89764e-13
3.25549e-13
3.62978e-14
1.50358e-13
5.98152e-14
1.42905e-13
1.09531e-13
4.94603e-13
9.83411e-13
3.07689e-13
3.86495e-13
3.98021e-13
4.92804e-13
3.86916e-13
3.13078e-13
2.89093e-13
1.74001e-13
2.83507e-13
4.1537e-13
2.19905e-13
2.25827e-13
2.28877e-13
3.69772e-13
2.64193e-13
2.82368e-13
2.62585e-13
2.50149e-13
2.44422e-13
2.40555e-13
2.35699e-13
2.30815e-13
2.25745e-13
2.20986e-13
2.16445e-13
2.12117e-13
2.08158e-13
2.04485e-13
2.01548e-13
1.99024e-13
1.96546e-13
1.94719e-13
1.93403e-13
1.92911e-13
1.93088e-13
1.93574e-13
1.94886e-13
1.96954e-13
2.00108e-13
2.03479e-13
2.07561e-13
2.11568e-13
2.1556e-13
2.17383e-13
6.42826e-14
2.1662e-14
3.41811e-14
3.26786e-14
7.04881e-14
5.04397e-14
6.42891e-14
4.20259e-14
3.32553e-14
3.37812e-13
2.00404e-14
1.9775e-13
2.1271e-14
1.60239e-13
1.1735e-13
2.47551e-13
3.39263e-14
2.00138e-13
6.10394e-14
1.84731e-13
2.92304e-13
6.4926e-13
5.26028e-13
1.62986e-12
3.34277e-13
3.36229e-13
4.15579e-13
3.70336e-13
3.81704e-13
2.82019e-13
2.15612e-13
2.33334e-13
3.65158e-13
3.38285e-13
1.62425e-13
2.41535e-13
2.79777e-13
2.65534e-13
2.519e-13
2.4768e-13
2.4797e-13
2.42956e-13
2.36741e-13
2.31432e-13
2.26296e-13
2.21554e-13
2.16943e-13
2.12513e-13
2.08411e-13
2.04549e-13
2.01338e-13
1.9851e-13
1.95751e-13
1.93592e-13
1.91851e-13
1.90813e-13
1.90419e-13
1.90267e-13
1.90908e-13
1.92261e-13
1.94632e-13
1.97488e-13
2.00906e-13
2.0509e-13
2.08967e-13
2.12933e-13
2.14548e-13
6.3466e-14
5.91178e-14
2.04323e-14
2.76864e-14
2.78048e-14
5.72654e-14
4.98865e-14
6.16722e-14
3.94477e-14
3.89793e-14
1.10738e-13
1.67528e-14
2.67034e-13
2.24606e-14
1.76008e-13
9.25556e-14
1.94785e-13
3.29236e-14
3.03423e-13
6.5607e-14
2.07915e-13
5.47844e-13
2.62341e-13
7.68338e-13
4.8855e-12
2.79045e-13
3.65402e-13
3.19809e-13
2.66804e-13
4.46481e-13
3.7698e-13
2.98558e-13
2.12996e-13
4.4523e-13
3.85447e-13
1.65457e-13
2.29212e-13
2.58187e-13
2.47374e-13
2.54934e-13
2.49762e-13
2.41256e-13
2.35883e-13
2.31584e-13
2.26782e-13
2.22093e-13
2.17436e-13
2.12926e-13
2.08726e-13
2.0473e-13
2.013e-13
1.9821e-13
1.95184e-13
1.92737e-13
1.90665e-13
1.892e-13
1.88276e-13
1.87575e-13
1.87586e-13
1.88288e-13
1.89962e-13
1.92052e-13
1.94976e-13
1.98546e-13
2.02606e-13
2.06525e-13
2.10106e-13
2.12065e-13
6.26605e-14
3.46912e-14
5.16787e-14
2.34115e-14
2.67768e-14
2.9217e-14
7.79044e-14
4.87659e-14
1.25659e-13
3.60133e-14
3.49901e-14
2.02053e-13
1.50853e-14
4.48825e-13
2.63809e-14
1.47055e-13
6.75617e-14
1.78786e-13
3.79029e-14
2.90502e-13
9.48305e-14
7.48862e-13
4.15212e-13
4.25567e-13
9.35966e-13
4.67888e-13
2.55846e-13
4.39714e-13
3.17121e-13
2.63256e-13
3.51025e-13
4.03882e-13
4.828e-13
2.0253e-13
6.77197e-13
3.16563e-13
2.40908e-13
2.40445e-13
2.51971e-13
2.50768e-13
2.45018e-13
2.40564e-13
2.37401e-13
2.32747e-13
2.27391e-13
2.22565e-13
2.17879e-13
2.13345e-13
2.09068e-13
2.04978e-13
2.01383e-13
1.98082e-13
1.94826e-13
1.92103e-13
1.89751e-13
1.87953e-13
1.86603e-13
1.85398e-13
1.84867e-13
1.84957e-13
1.85993e-13
1.87393e-13
1.89591e-13
1.9268e-13
1.96168e-13
2.00288e-13
2.03788e-13
2.07697e-13
2.09418e-13
6.18769e-14
5.00299e-13
3.49726e-14
4.51249e-14
3.36138e-14
2.54259e-14
2.6551e-14
1.60552e-13
7.42355e-14
9.34318e-14
4.60575e-14
4.15007e-14
6.0635e-14
1.621e-14
1.64184e-13
3.08957e-14
1.11897e-13
6.05033e-14
1.45995e-13
4.57218e-14
3.74139e-13
1.3094e-13
1.13076e-12
1.37679e-12
2.79123e-13
3.15561e-13
3.18354e-13
6.33792e-13
3.59393e-13
3.88974e-13
1.95e-13
2.40594e-13
4.82116e-13