/*--------------------------------*- C++ -*----------------------------------*\
| =========                 |                                                 |
| \\      /  F ield         | OpenFOAM: The Open Source CFD Toolbox           |
|  \\    /   O peration     | Version:  2212                                  |
|   \\  /    A nd           | Website:  www.openfoam.com                      |
|    \\/     M anipulation  |                                                 |
\*---------------------------------------------------------------------------*/
FoamFile
{
    version     2.0;
    format      ascii;
    arch        "LSB;label=32;scalar=64";
    class       volScalarField;
    location    "30";
    object      p;
}
// * * * * * * * * * * * * * * * * * * * * * * * * * * * * * * * * * * * * * //

dimensions      [0 2 -2 0 0 0 0];

internalField   nonuniform List<scalar> 
165000
(
4.39284e-05
2.84803e-05
0.000201373
1.0127e-05
0.000119489
0.000360104
1.9981e-05
5.72992e-05
0.000205809
0.000388355
2.07784e-06
5.97295e-05
7.94785e-05
0.000228625
0.000355344
-1.63965e-05
1.73752e-05
4.80094e-05
3.84124e-05
0.000142739
0.000318348
-5.16768e-06
-6.62787e-05
2.88677e-05
-2.58196e-06
-5.04998e-05
1.3572e-05
0.000199494
6.37506e-06
-2.41944e-05
-0.000102782
3.30214e-05
-5.84987e-05
-9.25747e-05
-5.75984e-05
4.2957e-05
1.22626e-05
3.89673e-05
-3.80232e-05
-6.05321e-05
2.89969e-05
-9.05592e-05
-0.000132782
-0.00012932
-0.00012207
2.02717e-05
8.39108e-05
0.0001491
3.14072e-06
1.05379e-05
4.47614e-05
-0.000140364
-0.000212056
-0.000258076
-0.000241988
4.95111e-05
0.000113818
0.000242017
0.000280714
7.27004e-05
0.000147547
4.18584e-05
-0.000201988
-0.000302662
-0.000413609
-0.000312584
5.51142e-05
0.000195897
0.000320977
0.000396579
0.000408365
0.000209191
0.000236219
2.18132e-05
-0.000285557
-0.000327905
-0.000561922
-0.000420694
5.97289e-05
0.000211461
0.00043585
0.00049932
0.000541895
0.000562458
0.000300305
0.000269
-1.27111e-05
-0.000348416
-0.000347317
-0.000609491
-0.000561059
5.33344e-05
0.000276905
0.000491927
0.000620689
0.000691773
0.000711364
0.000648749
0.000338778
0.000270469
-2.5855e-05
-0.000346294
-0.000402301
-0.000542797
-0.000613244
7.75885e-05
0.000285852
0.000651094
0.000752593
0.00082765
0.000884535
0.000853454
0.000677443
0.000342999
0.000264757
-3.45262e-05
-0.000259668
-0.000442351
-0.000405858
-0.000567604
9.12795e-05
0.000325738
0.000662302
0.000956565
0.00103677
0.00106411
0.00105637
0.00100747
0.000707274
0.000407029
0.000250994
-6.54748e-05
-0.000143956
-0.000434496
-0.000341502
-0.000552016
0.00010252
0.000356508
0.000682407
0.000964641
0.00123718
0.00131856
0.00128271
0.00125169
0.0011578
0.000812484
0.000522783
0.000251255
-7.33491e-05
-0.000137297
-0.00035117
-0.000380623
-0.000658922
0.000118958
0.000404389
0.000791875
0.000989509
0.00125112
0.00149375
0.00157287
0.00153317
0.00144411
0.00132205
0.000932724
0.000611741
0.000236099
-5.70391e-05
-0.000254603
-0.000311317
-0.000472842
-0.000810513
9.30626e-05
0.000418637
0.000893388
0.00117412
0.00134337
0.00152709
0.00172478
0.00183007
0.00176507
0.00163832
0.00148992
0.00105334
0.00064059
0.000205859
-4.82409e-05
-0.000412072
-0.000371543
-0.000676989
-0.000965975
7.61945e-05
0.00039627
0.000864489
0.00133275
0.00153717
0.00171186
0.00186052
0.0019873
0.00207435
0.00200417
0.0018503
0.00164592
0.00114727
0.000668311
0.000194254
-4.36038e-05
-0.000517739
-0.00054498
-0.000972965
-0.00118603
0.000104941
0.000383654
0.000927229
0.00127886
0.0017605
0.00188776
0.00213161
0.00219847
0.00227158
0.00232581
0.00224255
0.00204988
0.00178965
0.00125116
0.000725186
0.000232908
-7.31911e-05
-0.00061602
-0.000811706
-0.00128564
-0.00144126
0.000119711
0.000450384
0.000959767
0.00141176
0.00169061
0.00205618
0.00226806
0.00246667
0.00252091
0.00255942
0.00258233
0.00247734
0.00225846
0.00193235
0.00136856
0.000809649
0.000255009
-0.000106538
-0.000738022
-0.00110722
-0.00152159
-0.00166305
0.000172788
0.000442646
0.000979145
0.00149006
0.00195307
0.00204938
0.00233956
0.0025938
0.00267143
0.00279762
0.0028635
0.00284164
0.00271978
0.0024649
0.00207997
0.00149693
0.000914891
0.000299087
-0.000150518
-0.000880226
-0.00140966
-0.00164968
-0.00185949
0.000107984
0.000522423
0.000932609
0.00148412
0.00203952
0.00247024
0.00243831
0.00267771
0.00285797
0.00293879
0.00308084
0.0031466
0.00310361
0.00295663
0.00266562
0.00223448
0.00162354
0.00101167
0.000343259
-0.000199869
-0.00101717
-0.00164066
-0.00181125
-0.00198611
7.01629e-05
0.000346076
0.000987313
0.00131613
0.00208068
0.00255115
0.00294523
0.00284224
0.00305274
0.0031698
0.00327365
0.00339725
0.00345412
0.00336771
0.00320126
0.00287212
0.00238888
0.00174144
0.00110482
0.00037405
-0.000319129
-0.00110913
-0.00179163
-0.00203542
-0.00201087
6.49811e-05
0.000275345
0.000711419
0.00134427
0.00176459
0.0026588
0.00301073
0.00332843
0.003249
0.00342161
0.00351288
0.00361975
0.00374442
0.0037565
0.00363627
0.0034401
0.00307041
0.00254718
0.00186802
0.00118821
0.000400957
-0.000486554
-0.0011811
-0.00190232
-0.00221348
-0.00213263
0.000126885
0.000274908
0.00060966
0.00104331
0.00174097
0.00225827
0.0031522
0.00339165
0.00366252
0.0036305
0.00370577
0.00388837
0.00399817
0.00409482
0.00407009
0.00390677
0.00368471
0.00327563
0.00270371
0.00198053
0.00127373
0.000397047
-0.000620989
-0.00131349
-0.00205699
-0.00237467
-0.00255172
0.000150542
0.000379858
0.000541733
0.00100853
0.0014595
0.00219409
0.00274422
0.00351228
0.00365727
0.00382921
0.00393385
0.00394983
0.00421182
0.00435568
0.00444182
0.00438814
0.00418539
0.00392565
0.00347414
0.00286232
0.00210786
0.0013544
0.000383072
-0.000688716
-0.00151847
-0.00230449
-0.00272065
-0.00318263
0.000143741
0.000403166
0.00061148
0.000903287
0.00151389
0.00194393
0.00269316
0.00309189
0.00374111
0.00374926
0.0039289
0.00418118
0.00424448
0.00452663
0.00470546
0.00478028
0.00470138
0.00446222
0.00417012
0.00367919
0.00302209
0.00222281
0.0014328
0.000370062
-0.000711213
-0.00171317
-0.00260881
-0.00314246
-0.0037342
0.00013259
0.000402946
0.000674459
0.000961519
0.00146363
0.00209997
0.00250119
0.00320217
0.00344017
0.00391244
0.00388637
0.00419743
0.00442744
0.00462753
0.00490316
0.00504777
0.00512179
0.00502527
0.00474839
0.00441328
0.00387869
0.00317912
0.0023454
0.00150647
0.000364695
-0.000713538
-0.00188065
-0.00285776
-0.00345162
-0.00407343
0.000157295
0.000374031
0.000723221
0.00096711
0.00152384
0.0020331
0.00273858
0.003041
0.00369564
0.0039403
0.00421239
0.00420053
0.00455775
0.00476594
0.00504672
0.00529363
0.00542333
0.00546218
0.00533786
0.00503087
0.00465852
0.00408422
0.00334175
0.0024686
0.00157533
0.000370389
-0.000733431
-0.00201955
-0.00299241
-0.00373363
-0.00424849
0.00013052
0.000394221
0.000671309
0.00105134
0.0014774
0.00201765
0.00255662
0.0031544
0.00354925
0.0042063
0.00445982
0.00460575
0.00460112
0.00484575
0.00519968
0.00545533
0.00570569
0.00579249
0.00580759
0.0056638
0.00532121
0.00490386
0.00428514
0.00349823
0.00258508
0.00163951
0.000382571
-0.000733732
-0.00210843
-0.00303138
-0.00404263
-0.00438778
0.000126609
0.000378039
0.000736449
0.00102717
0.00155094
0.00202768
0.00246355
0.00298889
0.00348634
0.00404647
0.00462989
0.0049493
0.00498556
0.00500132
0.00518958
0.00562926
0.00589156
0.00611964
0.00616847
0.00615846
0.00597973
0.00560867
0.00515038
0.00449091
0.00366167
0.00271054
0.00170053
0.000392761
-0.000753747
-0.00217464
-0.00303425
-0.00427408
-0.00459269
0.000112123
0.000359882
0.000730673
0.00110758
0.00152616
0.00209474
0.0025281
0.00292697
0.00345025
0.00396972
0.00454007
0.00501531
0.00517407
0.00535853
0.00538214
0.0056713
0.00610532
0.00635166
0.00654082
0.00656571
0.00650824
0.00630699
0.00590102
0.0053976
0.0046936
0.00381917
0.00282389
0.00175823
0.0004068
-0.000790115
-0.00223156
-0.00310894
-0.00444967
-0.00483516
5.09772e-05
0.000273121
0.000713453
0.00111684
0.00156876
0.00203521
0.00260807
0.00301436
0.00344746
0.00400754
0.00451677
0.00504565
0.00542227
0.00539003
0.00572067
0.00576813
0.00614364
0.00658332
0.0068077
0.0069656
0.00694633
0.00687028
0.00662816
0.00619214
0.0056458
0.00489945
0.00398167
0.00294531
0.00181395
0.000420559
-0.000806118
-0.00229637
-0.003286
-0.00459116
-0.00505098
6.15666e-05
0.000238514
0.000627129
0.00107166
0.00150506
0.00203151
0.00252522
0.00307492
0.00358639
0.00403223
0.00453874
0.0050869
0.00549064
0.00565221
0.00568423
0.00589599
0.00620488
0.00654805
0.00703413
0.00725442
0.00739133
0.00735242
0.00722534
0.00695696
0.00648615
0.00589481
0.00510358
0.00414032
0.00305734
0.00186718
0.000432456
-0.000864542
-0.00236264
-0.00348492
-0.00473184
-0.00524183
8.09761e-05
0.00029213
0.000559274
0.000998625
0.00145843
0.0019454
0.00248406
0.00306539
0.00356233
0.00417331
0.00457423
0.00506217
0.00554576
0.005746
0.00591251
0.0059699
0.00615226
0.00663474
0.00692012
0.0074707
0.0076952
0.00782325
0.00774739
0.00759437
0.00728371
0.00678004
0.00614449
0.00530959
0.00430136
0.00317306
0.00191914
0.000446342
-0.000895663
-0.00244025
-0.003639
-0.0048893
-0.00542478
7.35458e-05
0.000309501
0.000548024
0.000936087
0.00139627
0.00190786
0.00244069
0.00307145
0.0036126
0.00405782
0.00471981
0.00505804
0.00554148
0.00587519
0.00604496
0.0061542
0.0063019
0.00664966
0.00709331
0.00738423
0.00790544
0.00814414
0.00825011
0.0081539
0.00795718
0.0076151
0.00707547
0.00639514
0.00551474
0.00446027
0.00328309
0.00196901
0.000455281
-0.000948765
-0.00251718
-0.00376987
-0.0050301
-0.00561873
7.53025e-05
0.000277954
0.000536951
0.000851939
0.00131043
0.00188359
0.00247382
0.00300818
0.00366671
0.00412023
0.00462631
0.00524451
0.00560516
0.00599692
0.00616874
0.0064263
0.00645115
0.0067694
0.00719339
0.00762622
0.00791931
0.00838408
0.00859176
0.00868184
0.00856047
0.00833034
0.00794662
0.00737163
0.00664624
0.0057208
0.00461974
0.0033935
0.0020178
0.000465311
-0.000999952
-0.00260319
-0.00391211
-0.00519714
-0.00581231
7.00735e-05
0.000251391
0.000521187
0.000809816
0.00129203
0.00181823
0.00246393
0.00305072
0.00358724
0.00417816
0.00464621
0.00525303
0.00580304
0.00606842
0.00639104
0.00646139
0.0067779
0.00691264
0.00734627
0.0077643
0.00819191
0.00848913
0.00886419
0.00904696
0.00911413
0.00896851
0.00870063
0.0082814
0.00766871
0.00689817
0.00592645
0.00477797
0.00350044
0.00206511
0.000470682
-0.00105183
-0.00268937
-0.00405599
-0.00534823
-0.00601234
8.11195e-05
0.000250429
0.000517829
0.000848062
0.00123014
0.00178014
0.00238739
0.00304172
0.00360694
0.00417747
0.00463757
0.00519396
0.00571292
0.00612803
0.00636482
0.00664404
0.00682749
0.00707542
0.00732452
0.00794251
0.0083331
0.00882118
0.00903947
0.00936007
0.00951585
0.00955017
0.00938149
0.00907736
0.00861731
0.00796674
0.00715054
0.00613254
0.00493569
0.00360631
0.00211104
0.000474973
-0.00111281
-0.00278126
-0.00420444
-0.00551551
-0.00621502
9.08419e-05
0.000281275
0.000516747
0.000905428
0.00133006
0.00171409
0.00231159
0.00298856
0.00357046
0.00414537
0.00467537
0.00514387
0.00571406
0.00601024
0.00629411
0.00658453
0.00693493
0.00726339
0.00748224
0.00784262
0.00846038
0.00889758
0.00937942
0.00962275
0.00987451
0.00998386
0.00998958
0.0097937
0.00945406
0.00895568
0.00826568
0.00740372
0.00633819
0.00509246
0.00370962
0.0021556
0.000475267
-0.00117173
-0.00287774
-0.00435508
-0.00568187
-0.00641934
0.000108239
0.000313095
0.000549812
0.000902319
0.00132991
0.00174965
0.00223709
0.0029243
0.00355703
0.00406229
0.00465429
0.00516633
0.0057535
0.00610523
0.00635053
0.00655059
0.00693352
0.00730288
0.00759185
0.00803527
0.00850863
0.00898361
0.00947871
0.00995321
0.0101778
0.0103775
0.0104656
0.0104338
0.0102112
0.00983453
0.00929575
0.00856581
0.0076571
0.00654395
0.00524822
0.00381132
0.00219856
0.00047315
-0.00123747
-0.0029763
-0.00451261
-0.00585299
-0.00663119
0.000105143
0.000326147
0.000558167
0.000906041
0.00133441
0.00171599
0.00220113
0.00283904
0.00354541
0.00406255
0.00467572
0.0052078
0.00574379
0.00628827
0.00648863
0.00671878
0.00688079
0.00740292
0.00776122
0.00804005
0.0085493
0.00917965
0.00955817
0.0100742
0.0105104
0.0107406
0.0109062
0.0109475
0.0108814
0.0106287
0.0102167
0.00963819
0.00886664
0.00791115
0.00674922
0.00540302
0.00391077
0.00224007
0.000467384
-0.00130396
-0.00308216
-0.00467043
-0.00603103
-0.00684178
9.93925e-05
0.000308868
0.000553511
0.000865964
0.00128154
0.00172629
0.0021709
0.00279222
0.00348703
0.00410297
0.00465458
0.00527084
0.00575094
0.00623532
0.00661473
0.00689813
0.00707319
0.00735075
0.00791708
0.00830456
0.00864141
0.00907612
0.00981449
0.0101488
0.0106687
0.0110426
0.0112854
0.0114181
0.0114373
0.0113339
0.0110508
0.0106018
0.00998222
0.00916861
0.00816536
0.00695442
0.0055565
0.00400852
0.0022798
0.000458623
-0.00137474
-0.00318936
-0.00483379
-0.00621147
-0.00706076
8.182e-05
0.000301418
0.000527101
0.000841866
0.00127331
0.00168268
0.00217599
0.00275169
0.00343012
0.00406476
0.00467326
0.00523486
0.00574568
0.00623141
0.00665881
0.00697494
0.00725629
0.00750567
0.00788835
0.00843633
0.00875986
0.00918921
0.00971581
0.0104416
0.0108187
0.0112726
0.0116076
0.0118347
0.0119477
0.0119288
0.0117896
0.0114744
0.0109888
0.0103283
0.00947131
0.00842015
0.00715897
0.00570899
0.00410413
0.00231789
0.000446169
-0.00144779
-0.00330368
-0.00500025
-0.006399
-0.0072796
6.32715e-05
0.00026911
0.000523853
0.000838917
0.00127781
0.0017032
0.00217105
0.00275371
0.00339652
0.00402982
0.00465527
0.00524585
0.00576525
0.00622673
0.00672254
0.00702901
0.00730657
0.00765569
0.00797523
0.00846883
0.0089621
0.00920348
0.00977208
0.0103566
0.0110232
0.011456
0.0118835
0.0121743
0.0123844
0.0124684
0.0124248
0.01225
0.0119013
0.0113783
0.010676
0.00977513
0.00867494
0.00736333
0.00585998
0.00419803
0.00235392
0.000430537
-0.00152431
-0.00342071
-0.00516972
-0.00659024
-0.00750553
4.87493e-05
0.000232464
0.000516319
0.00085403
0.00127615
0.00173019
0.0021737
0.00273226
0.00336214
0.00397314
0.00460346
0.00525826
0.00578579
0.00626451
0.00672401
0.00710416
0.00739452
0.00766169
0.00815904
0.00843525
0.00906646
0.00943956
0.00976051
0.0104756
0.0109402
0.0115827
0.0120741
0.0124738
0.0127498
0.0129358
0.0129991
0.0129238
0.0127132
0.0123305
0.0117698
0.0110256
0.0100795
0.00893026
0.00756686
0.00600987
0.0042898
0.0023881
0.000411119
-0.00160377
-0.00354347
-0.00534368
-0.00678788
-0.00773301
4.76333e-05
0.000215616
0.000502942
0.00085471
0.00128806
0.00173172
0.00217361
0.00271454
0.00333179
0.00391448
0.00453937
0.00523072
0.00579179
0.00628781
0.00674967
0.00715993
0.00742004
0.00780322
0.00818624
0.00856432
0.00890247
0.00958844
0.00990006
0.0103896
0.0111679
0.0116007
0.0121974
0.0126951
0.0130817
0.0133329
0.0134938
0.0135289
0.0134257
0.0131802
0.0127624
0.0121636
0.0113764
0.010385
0.00918535
0.00777007
0.0061582
0.00437977
0.00241991
0.000388308
-0.00168641
-0.00367015
-0.00552078
-0.00698978
-0.00796593
3.9244e-05
0.000226172
0.000502228
0.00085857
0.00130459
0.00175305
0.00219447
0.0027026
0.00330836
0.00391426
0.00450484
0.00517745
0.00580311
0.00629522
0.00675851
0.00718553
0.00753488
0.00788492
0.00827605
0.00863242
0.0089796
0.00950143
0.0101282
0.0104674
0.0112151
0.0118124
0.012352
0.0128593
0.0133165
0.0136783
0.0139174
0.014053
0.0140633
0.0139305
0.01365
0.0131969
0.0125591
0.011729
0.0106907
0.00944085
0.00797242
0.00630523
0.00446757
0.00244957
0.000361833
-0.00177228
-0.00380207
-0.00570181
-0.00719739
-0.0082026
3.15087e-05
0.000221013
0.000500893
0.000884252
0.00132064
0.00176873
0.00221533
0.00269707
0.00329078
0.0038704
0.00453587
0.00516395
0.00579501
0.00632853
0.0068124
0.00727583
0.00762025
0.00804122
0.00839917
0.0087918
0.00914269
0.009587
0.0102308
0.010696
0.0112094
0.011974
0.0124599
0.0130775
0.0135276
0.013953
0.0142899
0.0145077
0.0146179
0.0146005
0.014438
0.0141231
0.0136334
0.0129566
0.0120824
0.0109974
0.00969615
0.00817417
0.00645065
0.00455349
0.00247669
0.000331863
-0.00186165
-0.00393804
-0.00588643
-0.0074104
-0.00844399
2.63092e-05
0.000216262
0.000487787
0.000869608
0.00133823
0.00176748
0.00221557
0.00269482
0.00326384
0.00386829
0.00446492
0.0051532
0.00580586
0.00635327
0.00684014
0.00734887
0.00775678
0.00810093
0.00855974
0.00883888
0.0092427
0.0096633
0.0102669
0.0109087
0.0112617
0.0119458
0.0126058
0.0131827
0.0137602
0.0141931
0.0145883
0.0149017
0.0150989
0.0151851
0.0151405
0.0149487
0.0145986
0.0140725
0.0133552
0.0124372
0.0113045
0.00995149
0.00837503
0.00659468
0.00463712
0.00250143
0.000298055
-0.00195409
-0.00407888
-0.00607545
-0.00762885
-0.00868941
2.75578e-05
0.000212115
0.000484847
0.000848925
0.00132444
0.00177929
0.00220194
0.00269289
0.00325796
0.0038276
0.00446656
0.00507404
0.00576306
0.00634036
0.00683668
0.00731354
0.00773795
0.00816355
0.00852211
0.00898245
0.00930633
0.00971011
0.0102145
0.0108786
0.0114353
0.0119391
0.0126439
0.0133327
0.0139081
0.0144334
0.0148553
0.0152315
0.0155186
0.0156976
0.0157565
0.0156846
0.0154617
0.0150771
0.0145131
0.0137557
0.0127928
0.011612
0.0102066
0.00857525
0.00673686
0.00471884
0.0025233
0.000260973
-0.00205013
-0.00422449
-0.00626844
-0.00785241
-0.00893934
2.88277e-05
0.000210993
0.00047394
0.000853109
0.0013244
0.00175668
0.00220075
0.0026723
0.00324067
0.00379932
0.00441693
0.0050736
0.00567934
0.00632642
0.00680053
0.00728765
0.0077415
0.00811243
0.00857324
0.00899216
0.00946605
0.00980404
0.0101699
0.0108672
0.0113917
0.0119911
0.0126211
0.0133466
0.014098
0.014608
0.0151046
0.0155229
0.0158746
0.0161417
0.0162945
0.0163316
0.0162311
0.015978
0.0155575
0.0149559
0.0141573
0.0131494
0.0119199
0.0104618
0.00877422
0.00687769
0.0047981
0.00254277
0.000220117
-0.00214986
-0.00437485
-0.00646546
-0.00808123
-0.00919359
3.65299e-05
0.000202775
0.000462442
0.000823345
0.00132902
0.00177075
0.00219218
0.00266049
0.00322065
0.00378535
0.004389
0.00500706
0.00569196
0.00629506
0.00681673
0.00728456
0.00777516
0.00818777
0.0086042
0.00902743
0.00954206
0.00998158
0.0102668
0.0107611
0.0114531
0.0119978
0.0125795
0.013273
0.0141179
0.0147864
0.0153057
0.0157791
0.0161875
0.0165244
0.0167659
0.0169013
0.0169097
0.0167816
0.0164963
0.0160407
0.0154003
0.0145602
0.0135068
0.0122284
0.0107164
0.00897261
0.00701651
0.00487542
0.00255927
0.000175572
-0.00225336
-0.00452968
-0.00666665
-0.00831516
-0.00945317
4.66406e-05
0.000214039
0.000452545
0.000809467
0.00131724
0.00178231
0.00219635
0.00266192
0.0032002
0.00377538
0.00437061
0.00499935
0.00563628
0.00630546
0.00683596
0.00728881
0.00779908
0.00832395
0.00871693
0.00911356
0.00957235
0.0100377
0.0103452
0.0107795
0.0114316
0.012057
0.0127169
0.0132252
0.0140421
0.014851
0.0154705
0.0159979
0.0164682
0.0168595
0.0171735
0.0173975
0.0175058
0.017492
0.0173342
0.0170176
0.016526
0.0158465
0.0149644
0.0138654
0.0125367
0.0109711
0.00916964
0.00715387
0.00495028
0.00257291
0.000127225
-0.00236042
-0.00468915
-0.00687197
-0.00855504
-0.00971747
5.79777e-05
0.000219971
0.000463318
0.000802073
0.00129666
0.00178773
0.00219209
0.00266282
0.00319076
0.00375872
0.00436059
0.0049601
0.00562833
0.0062651
0.00683085
0.00729066
0.00779273
0.00834176
0.0088051
0.00921921
0.0096336
0.0100849
0.0104686
0.0107401
0.0114065
0.0121406
0.0128168
0.0134183
0.0140627
0.0148918
0.0155457
0.0161683
0.0166979
0.0171494
0.0175311
0.0178308
0.0180301
0.0181191
0.0180767
0.0178906
0.0175414
0.0170135
0.0162946
0.0153703
0.0142242
0.0128457
0.011225
0.00936587
0.00728923
0.00502286
0.00258342
7.53998e-05
-0.00247133
-0.00485306
-0.00708231
-0.00880019
-0.00998622
6.70261e-05
0.000222568
0.000464664
0.000799353
0.00128892
0.00176237
0.00218709
0.00263699
0.00317836
0.00375038
0.00433739
0.00493262
0.00555071
0.00623836
0.00681427
0.00731217
0.00776992
0.00834558
0.00886942
0.00923852
0.00971032
0.0101249
0.0105375
0.0110001
0.0114382
0.0121404
0.012857
0.0135184
0.0142024
0.0149555
0.0157038
0.0162824
0.0168893
0.0174001
0.0178441
0.0182086
0.0184873
0.0186688
0.0187318
0.0186654
0.0184496
0.0180677
0.0175034
0.0167449
0.0157769
0.0145845
0.0131546
0.0114788
0.00956073
0.00742291
0.00509287
0.0025911
1.98163e-05
-0.00258594
-0.00502219
-0.00729713
-0.0090503
-0.0102599
7.30771e-05
0.000215087
0.000464499
0.000787029
0.00128267
0.00174667
0.00217017
0.00262688
0.00315256
0.00374561
0.00429967
0.00488333
0.0055084
0.00617207
0.00680662
0.00730756
0.00776877
0.00833356
0.00887841
0.00929672
0.0097318
0.0102043
0.0105956
0.0110709
0.0115962
0.0121407
0.0128842
0.013566
0.0141829
0.0150075
0.0157289
0.0164564
0.017037
0.0176043
0.0181103
0.0185379
0.0188886
0.0191514
0.0193094
0.019351
0.0192571
0.0190115
0.0185968
0.017996
0.0171965
0.0161856
0.0149452
0.0134639
0.0117319
0.00975463
0.00755448
0.00516061
0.0025956
-3.93024e-05
-0.00270503
-0.00519595
-0.00751623
-0.00930578
-0.0105383
8.44475e-05
0.000213232
0.000455943
0.000775929
0.00125531
0.00174498
0.00216715
0.00262775
0.00315205
0.00372202
0.00429683
0.00482708
0.00545759
0.00614777
0.00677679
0.00729689
0.00777225
0.00828836
0.00890872
0.00934642
0.00973979
0.0102544
0.0106975
0.0110936
0.0116112
0.0121418
0.0128874
0.0135764
0.0142131
0.0148984
0.0157451
0.0164994
0.0172055
0.0177828
0.018337
0.0188207
0.0192374
0.019573
0.019816
0.019955
0.019972
0.019852
0.0195767
0.0191288
0.0184904
0.0176509
0.0165954
0.015307
0.013773
0.0119847
0.00994704
0.00768433
0.00522573
0.00259712
-0.000102615
-0.00282812
-0.00537414
-0.00774003
-0.00956632
-0.0108224
9.52558e-05
0.000220299
0.000459555
0.000771551
0.00121034
0.00170875
0.00216072
0.00264343
0.00314782
0.00370831
0.00427566
0.00479336
0.00540153
0.00611954
0.00677642
0.00728123
0.00773307
0.00832321
0.0089143
0.0093813
0.0098036
0.0103186
0.0107527
0.0111182
0.0116516
0.0121778
0.0127555
0.0136081
0.0142821
0.0149478
0.0156567
0.0165233
0.0173251
0.0179615
0.0185346
0.0190652
0.0195413
0.019942
0.0202608
0.0204867
0.0206037
0.0205972
0.0204504
0.0201451
0.0196629
0.0189879
0.0181069
0.0170069
0.0156693
0.0140826
0.0122366
0.0101384
0.00781203
0.00528844
0.00259505
-0.000169652
-0.00295515
-0.00555702
-0.00796839
-0.00983278
-0.0111117
0.00010353
0.000228862
0.000465629
0.000766483
0.00119175
0.00168054
0.00213665
0.00263918
0.00314306
0.00368008
0.00426716
0.0047662
0.00535997
0.00608291
0.0067708
0.0073151
0.00773709
0.00827891
0.00893374
0.0094009
0.00983742
0.0103447
0.0108391
0.0111696
0.0116918
0.0122646
0.0127658
0.0135392
0.0143504
0.0150144
0.0158159
0.016506
0.0173025
0.0180991
0.0187191
0.0192767
0.0198004
0.0202602
0.0206487
0.0209528
0.0211598
0.0212561
0.0212258
0.0210523
0.0207158
0.0202005
0.0194875
0.0185652
0.0174195
0.0160328
0.014392
0.0124881
0.0103282
0.00793784
0.00534826
0.00258978
-0.000240399
-0.00308631
-0.00574447
-0.00820209
-0.0101047
-0.0114055
0.000112908
0.000233163
0.00047347
0.000757565
0.00118358
0.0016698
0.00212925
0.00262827
0.00311772
0.00365062
0.00424844
0.00476904
0.00534419
0.00606941
0.00676476
0.00732333
0.00777183
0.0082584
0.00891105
0.00944317
0.00986578
0.0104354
0.0108994
0.0112964
0.0117595
0.0124034
0.0129159
0.0135537
0.0143938
0.0151081
0.0157627
0.0166308
0.0174005
0.018109
0.0188734
0.0194658
0.0200294
0.0205399
0.0209885
0.0213614
0.0216487
0.0218373
0.0219125
0.0218585
0.0216568
0.0212904
0.0207404
0.0199897
0.0190252
0.0178341
0.0163967
0.0147015
0.0127386
0.0105167
0.00806137
0.00540546
0.00258122
-0.000314916
-0.00322164
-0.00593711
-0.00844085
-0.0103813
-0.011705
0.000117444
0.000243309
0.000477635
0.00076102
0.00117323
0.00166566
0.00212877
0.00261658
0.00309432
0.00361145
0.00423945
0.00478067
0.00533878
0.00606925
0.00676862
0.00734926
0.00780672
0.00822152
0.00887049
0.00947945
0.00992416
0.0104721
0.0109977
0.0113848
0.0118694
0.012447
0.0129812
0.0135956
0.0143679
0.0151672
0.0158138
0.0165721
0.0173584
0.0183416
0.0189552
0.0196131
0.0202249
0.0207795
0.0212809
0.0217166
0.0220769
0.0223483
0.0225186
0.0225729
0.0224938
0.0222656
0.0218675
0.0212832
0.020494
0.0194878
0.0182497
0.0167615
0.0150107
0.0129886
0.0107037
0.00818285
0.00545992
0.00256939
-0.000393335
-0.00336164
-0.00613468
-0.00868394
-0.0106638
-0.0120102
0.00012121
0.000246372
0.000485777
0.000763207
0.00116467
0.00166369
0.00212792
0.00259794
0.00307477
0.0036009
0.00422716
0.00480397
0.00535917
0.00604985
0.00677332
0.00735345
0.00785367
0.008233
0.0088134
0.00952889
0.00997989
0.0105041
0.011085
0.0115258
0.0119406
0.0124702
0.0130481
0.0135253
0.0143043
0.0151809
0.0158703
0.016561
0.01745
0.0181662
0.0191321
0.0197557
0.0203847
0.0209905
0.0215391
0.0220289
0.0224525
0.0227971
0.0230524
0.0232043
0.0232363
0.0231337
0.0228771
0.0224479
0.0218285
0.0210014
0.0199519
0.0186668
0.0171266
0.01532
0.0132377
0.0108892
0.00830205
0.00551173
0.00255405
-0.000475932
-0.00350618
-0.00633646
-0.00893251
-0.0109519
-0.0123207
0.000125316
0.000248199
0.000488077
0.000764591
0.00115592
0.00165073
0.00212382
0.00258323
0.00306371
0.00358855
0.0042319
0.00481777
0.00537983
0.00604334
0.00673254
0.00734651
0.00786433
0.00825519
0.00876992
0.00951656
0.0100332
0.0105723
0.011135
0.0116205
0.0120133
0.0124901
0.0130527
0.0136147
0.0142407
0.0151567
0.0159579
0.0165789
0.0174405
0.0183063
0.0190704
0.0198613
0.0205314
0.0211733
0.0217604
0.0222985
0.0227789
0.0231897
0.0235214
0.0237608
0.0238931
0.0239045
0.0237767
0.0234922
0.0230311
0.0223772
0.0215107
0.0204182
0.0190849
0.0174925
0.0156292
0.013486
0.011073
0.0084192
0.00556056
0.00253509
-0.000562715
-0.00365463
-0.00654348
-0.00918646
-0.0112455
-0.0126359
0.000127542
0.000249456
0.000486073
0.000761121
0.00114405
0.0016332
0.0021104
0.00256517
0.00304821
0.00358037
0.00422697
0.00482316
0.00538867
0.0060183
0.00671689
0.00731848
0.00786909
0.0082947
0.00871402
0.00943856
0.010069
0.0106175
0.0111569
0.0116622
0.0120853
0.0125157
0.0130124
0.0136004
0.0143203
0.0151127
0.015961
0.0167601
0.0173722
0.0182664
0.0191439
0.0199656
0.0206393
0.0213268
0.0219502
0.0225357
0.0230661
0.0235344
0.0239334
0.0242505
0.0244726
0.0245869
0.0245761
0.0244235
0.0241103
0.023618
0.0229282
0.0220227
0.020886
0.0195042
0.0178589
0.0159383
0.0137332
0.0112554
0.00853385
0.00560647
0.00251238
-0.000653077
-0.00380796
-0.00675562
-0.00944558
-0.0115438
-0.0129576
0.000129413
0.000247981
0.000484854
0.000754724
0.00112794
0.00161291
0.00209934
0.00253662
0.00303036
0.00357434
0.00423115
0.00483193
0.00540631
0.00600131
0.00667252
0.00731259
0.00784807
0.00831588
0.00870372
0.00935511
0.0100812
0.0106492
0.0111746
0.0117047
0.0121594
0.0125715
0.0130492
0.0136233
0.0143284
0.0150991
0.0159657
0.0167664
0.0175021
0.0182554
0.0191413
0.0200133
0.0207709
0.0214433
0.0221195
0.022743
0.0233152
0.0238346
0.0242937
0.0246805
0.0249829
0.0251895
0.0252843
0.0252517
0.0250736
0.0247325
0.0242076
0.0234823
0.0225365
0.0213556
0.0199249
0.0182259
0.0162468
0.0139797
0.0114359
0.00864627
0.00564921
0.00248644
-0.000747869
-0.00396601
-0.0069727
-0.00970925
-0.0118487
-0.0132846
0.000132487
0.000247863
0.000481685
0.000746476
0.00111367
0.0015896
0.00207747
0.00253466
0.00302086
0.00357554
0.00423493
0.00484445
0.00543414
0.00600582
0.00664789
0.00729074
0.00785356
0.00832852
0.00872427
0.00931087
0.010073
0.0106729
0.0111988
0.011727
0.0122396
0.0126561
0.0130756
0.0136909
0.0144303
0.0151666
0.0159247
0.0167578
0.0175126
0.0182512
0.0192367
0.0200623
0.0208431
0.0215702
0.0222703
0.0229219
0.0235327
0.0240983
0.0246102
0.0250582
0.0254318
0.0257207
0.0259102
0.0259859
0.0259309
0.0257281
0.0253578
0.0248006
0.0240388
0.0230528
0.0218272
0.0203468
0.018593
0.0165554
0.0142249
0.0116149
0.00875607
0.00568921
0.00245654
-0.000846908
-0.00412875
-0.0071941
-0.0099792
-0.0121587
-0.0136168
0.000135821
0.00024945
0.000476298
0.000735162
0.00110302
0.00156606
0.00206792
0.0025239
0.00302377
0.00358106
0.00423703
0.00485542
0.00544114
0.00603396
0.00661534
0.00728352
0.00784007
0.00833363
0.00877961
0.0092923
0.0100396
0.0106656
0.0112263
0.0117383
0.012278
0.0127227
0.0132161
0.0137824
0.014482
0.0152064
0.0159456
0.0167198
0.0175405
0.0182501
0.0192328
0.0201953
0.0209367
0.0216598
0.0224112
0.0230795
0.0237248
0.024329
0.0248867
0.0253888
0.0258259
0.0261883
0.0264624
0.0266353
0.0266913
0.0266147
0.026386
0.0259868
0.0253964
0.0245981
0.0235717
0.0223007
0.0207694
0.0189608
0.0168632
0.0144694
0.0117919
0.00886362
0.00572589
0.00242288
-0.000950259
-0.00429555
-0.00742141
-0.0102542
-0.012474
-0.0139549
0.000139091
0.000249955
0.000470607
0.000726102
0.00109302
0.00154872
0.00206089
0.0025254
0.00302534
0.00357792
0.0042344
0.00485505
0.0054406
0.00603109
0.00659946
0.00723703
0.00783483
0.00832181
0.0087985
0.00932299
0.0100181
0.0106827
0.0112388
0.0117385
0.0122879
0.0128301
0.0133264
0.013915
0.0145383
0.0152487
0.0159083
0.0166618
0.0175817
0.0184108
0.019182
0.0201514
0.0210632
0.0217712
0.0225171
0.0232232
0.0238949
0.0245307
0.025129
0.0256791
0.0261722
0.0265994
0.026949
0.0272087
0.0273644
0.0274017
0.0273022
0.0270479
0.0266188
0.0259953
0.0251605
0.024093
0.0227753
0.0211933
0.0193285
0.0171712
0.0147125
0.0119672
0.00896845
0.00575944
0.00238529
-0.00105732
-0.00446791
-0.00765345
-0.0105343
-0.012795
-0.0142985
0.00014156
0.000248605
0.000461575
0.000715814
0.00108647
0.00153767
0.00205
0.00252548
0.00303164
0.00357706
0.0042236
0.00485169
0.00544295
0.00602557
0.00658988
0.00722108
0.00781301
0.0083235
0.00880841
0.0093268
0.00998902
0.0106771
0.0112485
0.0117574
0.0122991
0.0128899
0.0134327
0.0139512
0.0145673
0.0152803
0.0159303
0.0167061
0.0175869
0.0185462
0.0193509
0.0201852
0.0210336
0.0218332
0.0227044
0.0233811
0.0240495
0.0247091
0.025342
0.0259335
0.0264757
0.0269605
0.0273771
0.0277142
0.0279591
0.0280987
0.028116
0.027994
0.0277131
0.0272544
0.026598
0.0257259
0.024616
0.023252
0.0216176
0.019697
0.0174784
0.0149545
0.0121405
0.00907082
0.00578959
0.00234434
-0.0011694
-0.00464474
-0.00789039
-0.01082
-0.0131216
-0.0146479
0.000143237
0.000246893
0.000449989
0.00070436
0.00108439
0.00153411
0.00203456
0.00252595
0.00303156
0.00358748
0.00421826
0.00485218
0.00544058
0.00602575
0.00658216
0.00720358
0.00780628
0.00830737
0.00881243
0.00934001
0.00995435
0.0106636
0.011258
0.0117708
0.0123325
0.0129582
0.0135001
0.0139933
0.0145627
0.0152057
0.0159781
0.0167621
0.0176889
0.0185792
0.0194382
0.0202722
0.0211378
0.0219097
0.0226819
0.0235606
0.0241917
0.0248673
0.0255291
0.0261563
0.0267421
0.0272777