/*--------------------------------*- C++ -*----------------------------------*\
| =========                 |                                                 |
| \\      /  F ield         | OpenFOAM: The Open Source CFD Toolbox           |
|  \\    /   O peration     | Version:  2212                                  |
|   \\  /    A nd           | Website:  www.openfoam.com                      |
|    \\/     M anipulation  |                                                 |
\*---------------------------------------------------------------------------*/
FoamFile
{
    version     2.0;
    format      ascii;
    arch        "LSB;label=32;scalar=64";
    class       surfaceScalarField;
    location    "30";
    object      phi;
}
// * * * * * * * * * * * * * * * * * * * * * * * * * * * * * * * * * * * * * //

dimensions      [0 3 -1 0 0 0 0];

oriented        oriented;

internalField   nonuniform List<scalar> 
328790
(
5.40488e-06
-6.74596
1.27578e-05
-6.29132
5.54715e-06
-6.74596
1.76774e-05
-5.86722
1.3071e-05
-6.29133
6.03803e-06
-6.74597
2.16475e-05
-5.4717
1.82133e-05
-5.86723
1.41462e-05
-6.29134
6.44716e-06
-6.74598
2.70712e-05
-5.10279
2.26706e-05
-5.4717
2.0033e-05
-5.86724
1.52127e-05
-6.29134
6.94536e-06
-6.74598
3.13094e-05
-4.7589
2.84913e-05
-5.1028
2.60661e-05
-5.47171
2.18869e-05
-5.86724
1.65698e-05
-6.29135
7.60772e-06
-6.74599
3.46941e-05
-4.43808
3.288e-05
-4.75891
3.27288e-05
-5.1028
2.87093e-05
-5.47172
2.41294e-05
-5.86725
1.78117e-05
-6.29136
8.34782e-06
-6.746
3.67205e-05
-4.13889
3.6397e-05
-4.43808
3.7202e-05
-4.75891
3.4879e-05
-5.10281
3.19074e-05
-5.47173
2.62985e-05
-5.86726
1.92837e-05
-6.29138
9.33791e-06
-6.74601
3.78229e-05
-3.85991
3.82184e-05
-4.13889
4.10899e-05
-4.43808
3.86375e-05
-4.75891
3.8065e-05
-5.10282
3.49312e-05
-5.47173
2.85859e-05
-5.86727
2.07639e-05
-6.29139
1.02414e-05
-6.74602
3.86145e-05
-3.59964
3.88658e-05
-3.85991
4.23161e-05
-4.13889
4.27637e-05
-4.43809
4.15319e-05
-4.75892
4.01276e-05
-5.10282
3.7541e-05
-5.47174
3.06891e-05
-5.86728
2.22566e-05
-6.2914
1.1299e-05
-6.74603
3.83227e-05
-3.35698
3.94885e-05
-3.59964
4.18866e-05
-3.85991
4.39931e-05
-4.13889
4.59806e-05
-4.43809
4.25684e-05
-4.75892
4.23831e-05
-5.10283
4.01109e-05
-5.47175
3.28389e-05
-5.86729
2.37264e-05
-6.29141
1.22482e-05
-6.74604
3.74807e-05
-3.13074
3.94042e-05
-3.35698
4.22409e-05
-3.59964
4.36668e-05
-3.85991
4.72719e-05
-4.13889
4.69131e-05
-4.4381
4.45015e-05
-4.75892
4.47235e-05
-5.10283
4.2274e-05
-5.47176
3.48529e-05
-5.8673
2.50867e-05
-6.29142
1.30951e-05
-6.74606
3.77761e-05
-2.9196
3.84837e-05
-3.13074
4.2594e-05
-3.35698
4.40539e-05
-3.59964
4.66479e-05
-3.85991
4.82275e-05
-4.1389
4.84791e-05
-4.4381
4.60772e-05
-4.75892
4.68574e-05
-5.10284
4.42817e-05
-5.47177
3.69098e-05
-5.86731
2.63754e-05
-6.29144
1.37526e-05
-6.74607
3.93634e-05
-2.72287
3.88691e-05
-2.9196
4.17004e-05
-3.13074
4.40469e-05
-3.35698
4.69802e-05
-3.59964
4.80037e-05
-3.85991
5.02685e-05
-4.1389
4.91994e-05
-4.4381
4.79392e-05
-4.75892
4.89907e-05
-5.10284
4.62362e-05
-5.47178
3.84949e-05
-5.86732
2.72266e-05
-6.29145
1.42778e-05
-6.74608
3.87726e-05
-2.53934
4.06816e-05
-2.72287
4.19385e-05
-2.9196
4.31105e-05
-3.13073
4.6956e-05
-3.35698
4.84829e-05
-3.59964
5.06936e-05
-3.85991
5.09773e-05
-4.1389
5.03191e-05
-4.43811
5.00681e-05
-4.75893
5.08512e-05
-5.10285
4.78103e-05
-5.47179
3.94288e-05
-5.86734
2.79137e-05
-6.29146
1.46877e-05
-6.7461
3.66316e-05
-2.36813
4.01029e-05
-2.53934
4.3116e-05
-2.72287
4.30857e-05
-2.9196
4.60862e-05
-3.13073
4.84443e-05
-3.35698
5.12159e-05
-3.59964
5.2062e-05
-3.85991
5.25321e-05
-4.1389
5.17113e-05
-4.43811
5.20009e-05
-4.75893
5.24239e-05
-5.10285
4.85586e-05
-5.4718
4.00632e-05
-5.86735
2.80264e-05
-6.29148
1.49089e-05
-6.74611
3.44056e-05
-2.20854
3.81494e-05
-2.36813
4.26898e-05
-2.53934
4.38185e-05
-2.72287
4.55412e-05
-2.9196
4.78107e-05
-3.13073
5.1071e-05
-3.35698
5.26775e-05
-3.59964
5.4586e-05
-3.85991
5.37395e-05
-4.1389
5.37216e-05
-4.43811
5.3825e-05
-4.75893
5.30997e-05
-5.10285
4.8969e-05
-5.47181
4.0176e-05
-5.86736
2.79451e-05
-6.29149
1.50275e-05
-6.74613
3.17316e-05
-2.05962
3.59208e-05
-2.20853
4.16433e-05
-2.36813
4.39856e-05
-2.53934
4.56112e-05
-2.72287
4.68293e-05
-2.9196
5.04891e-05
-3.13073
5.27083e-05
-3.35698
5.54129e-05
-3.59964
5.60335e-05
-3.85991
5.58968e-05
-4.13891
5.58944e-05
-4.43811
5.50931e-05
-4.75893
5.34375e-05
-5.10286
4.89745e-05
-5.47182
3.98563e-05
-5.86737
2.78671e-05
-6.2915
1.53272e-05
-6.74614
3.02298e-05
-1.9208
3.31836e-05
-2.05962
3.91387e-05
-2.20853
4.3262e-05
-2.36813
4.62132e-05
-2.53934
4.63531e-05
-2.72287
4.9258e-05
-2.9196
5.24305e-05
-3.13073
5.53352e-05
-3.35698
5.67294e-05
-3.59964
5.8382e-05
-3.85991
5.79395e-05
-4.13891
5.75689e-05
-4.43811
5.60194e-05
-4.75893
5.4104e-05
-5.10286
4.85052e-05
-5.47183
3.96175e-05
-5.86738
2.78872e-05
-6.29152
1.5476e-05
-6.74616
2.90885e-05
-1.79141
3.18044e-05
-1.9208
3.66207e-05
-2.05961
4.03519e-05
-2.20853
4.60878e-05
-2.36812
4.70242e-05
-2.53934
4.82598e-05
-2.72287
5.10804e-05
-2.91959
5.49879e-05
-3.13073
5.67991e-05
-3.35698
5.93644e-05
-3.59964
6.00658e-05
-3.85992
6.01639e-05
-4.13891
5.92318e-05
-4.43812
5.77749e-05
-4.75894
5.42247e-05
-5.10287
4.84714e-05
-5.47183
3.9278e-05
-5.86739
2.83027e-05
-6.29153
1.57398e-05
-6.74618
2.80908e-05
-1.67062
3.07732e-05
-1.79141
3.58859e-05
-1.9208
3.841e-05
-2.05961
4.30481e-05
-2.20853
4.70455e-05
-2.36812
4.8629e-05
-2.53934
4.96183e-05
-2.72287
5.3733e-05
-2.91959
5.6548e-05
-3.13073
5.94612e-05
-3.35698
6.09588e-05
-3.59964
6.23373e-05
-3.85992
6.20142e-05
-4.13891
6.11939e-05
-4.43812
5.89416e-05
-4.75894
5.52028e-05
-5.10288
4.79058e-05
-5.47184
3.92903e-05
-5.86741
2.84927e-05
-6.29154
1.58978e-05
-6.74619
2.53444e-05
-1.55804
2.99788e-05
-1.67062
3.55661e-05
-1.79141
3.86699e-05
-1.9208
4.14557e-05
-2.05961
4.39242e-05
-2.20852
4.86731e-05
-2.36813
4.94721e-05
-2.53934
5.17204e-05
-2.72287
5.54076e-05
-2.91959
5.89547e-05
-3.13073
6.10941e-05
-3.35698
6.32628e-05
-3.59964
6.39451e-05
-3.85992
6.41941e-05
-4.13892
6.28198e-05
-4.43812
6.04226e-05
-4.75895
5.56425e-05
-5.10288
4.78625e-05
-5.47185
3.92073e-05
-5.86742
2.88724e-05
-6.29155
1.61397e-05
-6.74621
2.16456e-05
-1.45293
2.65863e-05
-1.55804
3.47601e-05
-1.67062
3.81596e-05
-1.79141
4.27344e-05
-1.9208
4.27917e-05
-2.05961
4.55272e-05
-2.20852
4.9415e-05
-2.36812
5.05356e-05
-2.53934
5.34347e-05
-2.72286
5.80835e-05
-2.91959
6.07846e-05
-3.13073
6.33873e-05
-3.35698
6.49331e-05
-3.59965
6.62005e-05
-3.85992
6.56911e-05
-4.13892
6.45542e-05
-4.43813
6.17227e-05
-4.75895
5.62752e-05
-5.10289
4.80283e-05
-5.47186
3.95012e-05
-5.86743
2.92437e-05
-6.29157
1.61329e-05
-6.74622
1.94803e-05
-1.35514
2.25773e-05
-1.45292
3.01019e-05
-1.55804
3.67959e-05
-1.67061
4.19664e-05
-1.79141
4.48152e-05
-1.9208
4.47402e-05
-2.05961
4.66816e-05
-2.20852
5.03014e-05
-2.36812
5.18358e-05
-2.53934
5.62315e-05
-2.72286
5.98478e-05
-2.91959
6.27861e-05
-3.13073
6.51296e-05
-3.35698
6.71804e-05
-3.59965
6.78961e-05
-3.85993
6.77472e-05
-4.13892
6.62712e-05
-4.43813
6.30626e-05
-4.75896
5.73857e-05
-5.1029
4.86779e-05
-5.47187
4.0121e-05
-5.86744
2.97008e-05
-6.29158
1.62963e-05
-6.74624
1.94479e-05
-1.26375
2.01537e-05
-1.35514
2.54926e-05
-1.45292
3.15831e-05
-1.55803
3.9889e-05
-1.67061
4.4263e-05
-1.79141
4.7378e-05
-1.92081
4.59326e-05
-2.05961
4.81683e-05
-2.20852
5.10095e-05
-2.36812
5.39995e-05
-2.53934
5.83608e-05
-2.72286
6.18245e-05
-2.91959
6.4784e-05
-3.13073
6.73477e-05
-3.35698
6.89406e-05
-3.59965
6.99124e-05
-3.85993
6.95491e-05
-4.13893
6.79054e-05
-4.43814
6.45978e-05
-4.75897
5.83681e-05
-5.10291
4.98827e-05
-5.47188
4.09205e-05
-5.86745
3.03511e-05
-6.2916
1.63152e-05
-6.74626
1.95516e-05
-1.17857
2.04705e-05
-1.26375
2.26605e-05
-1.35513
2.7271e-05
-1.45291
3.3639e-05
-1.55803
4.18929e-05
-1.67061
4.64267e-05
-1.79141
4.84971e-05
-1.92081
4.74255e-05
-2.05961
4.95202e-05
-2.20851
5.24767e-05
-2.36812
5.61599e-05
-2.53934
6.03671e-05
-2.72286
6.37032e-05
-2.91959
6.67471e-05
-3.13073
6.91613e-05
-3.35698
7.10035e-05
-3.59965
7.17384e-05
-3.85993
7.13313e-05
-4.13893
6.9617e-05
-4.43814
6.6055e-05
-4.75897
5.96537e-05
-5.10292
5.12472e-05
-5.47189
4.18759e-05
-5.86746
3.09169e-05
-6.29161
1.63834e-05
-6.74627
1.85425e-05
-1.09916
2.07682e-05
-1.17857
2.34035e-05
-1.26375
2.50599e-05
-1.35513
2.97969e-05
-1.45291
3.54464e-05
-1.55802
4.37842e-05
-1.67061
4.7199e-05
-1.7914
4.9205e-05
-1.92081
4.89814e-05
-2.05961
5.10295e-05
-2.20851
5.40659e-05
-2.36812
5.83343e-05
-2.53933
6.20507e-05
-2.72286
6.56941e-05
-2.91959
6.87086e-05
-3.13073
7.12458e-05
-3.35698
7.28597e-05
-3.59965
7.36567e-05
-3.85993
7.30977e-05
-4.13893
7.13383e-05
-4.43815
6.74938e-05
-4.75898
6.09146e-05
-5.10293
5.29547e-05
-5.4719
4.30635e-05
-5.86747
3.13901e-05
-6.29162
1.63435e-05
-6.74629
1.56732e-05
-1.02496
1.94508e-05
-1.09916
2.2454e-05
-1.17857
2.56119e-05
-1.26375
2.85284e-05
-1.35513
3.21653e-05
-1.45291
3.81934e-05
-1.55801
4.51081e-05
-1.67061
4.72585e-05
-1.7914
4.94544e-05
-1.92081
5.01376e-05
-2.0596
5.26244e-05
-2.20851
5.59622e-05
-2.36812
6.04023e-05
-2.53933
6.39027e-05
-2.72286
6.76869e-05
-2.91959
7.06752e-05
-3.13073
7.31022e-05
-3.35698
7.47968e-05
-3.59965
7.544e-05
-3.85993
7.50238e-05
-4.13894
7.28513e-05
-4.43815
6.91255e-05
-4.75899
6.26709e-05
-5.10294
5.49717e-05
-5.47191
4.41253e-05
-5.86749
3.19604e-05
-6.29164
1.65893e-05
-6.74631
1.35658e-05
-0.95598
1.62626e-05
-1.02496
2.06287e-05
-1.09916
2.37736e-05
-1.17857
2.79807e-05
-1.26375
3.1905e-05
-1.35513
3.57536e-05
-1.45291
4.06625e-05
-1.55801
4.54361e-05
-1.6706
4.69734e-05
-1.7914
4.94847e-05
-1.92081
5.15626e-05
-2.0596
5.41749e-05
-2.20851
5.79184e-05
-2.36812
6.23368e-05
-2.53933
6.60963e-05
-2.72285
6.95762e-05
-2.91958
7.2559e-05
-3.13073
7.5087e-05
-3.35698
7.66739e-05
-3.59965
7.74621e-05
-3.85994
7.66178e-05
-4.13894
7.45748e-05
-4.43816
7.05168e-05
-4.759
6.46317e-05
-5.10295
5.63278e-05
-5.47192
4.5065e-05
-5.8675
3.28838e-05
-6.29166
1.69466e-05
-6.74632
1.20854e-05
-0.891587
1.41252e-05
-0.955978
1.74827e-05
-1.02495
2.16733e-05
-1.09916
2.55846e-05
-1.17857
3.06697e-05
-1.26375
3.47998e-05
-1.35513
4.01282e-05
-1.4529
4.28124e-05
-1.55801
4.54121e-05
-1.6706
4.73943e-05
-1.7914
4.97849e-05
-1.92081
5.27759e-05
-2.0596
5.57318e-05
-2.20851
6.01178e-05
-2.36811
6.43897e-05
-2.53933
6.79674e-05
-2.72285
7.14612e-05
-2.91958
7.45317e-05
-3.13073
7.69579e-05
-3.35698
7.86676e-05
-3.59965
7.90978e-05
-3.85994
7.83853e-05
-4.13894
7.60813e-05
-4.43817
7.22436e-05
-4.75901
6.59839e-05
-5.10296
5.73723e-05
-5.47194
4.62418e-05
-5.86751
3.38475e-05
-6.29167
1.73541e-05
-6.74634
9.91894e-06
-0.831487
1.25173e-05
-0.891585
1.52562e-05
-0.955975
1.87518e-05
-1.02495
2.3368e-05
-1.09916
2.70246e-05
-1.17856
3.29167e-05
-1.26375
3.82243e-05
-1.35513
4.39001e-05
-1.45291
4.45179e-05
-1.55801
4.62546e-05
-1.6706
4.82118e-05
-1.7914
5.00462e-05
-1.92081
5.37504e-05
-2.0596
5.75759e-05
-2.2085
6.2282e-05
-2.36811
6.63696e-05
-2.53933
6.97122e-05
-2.72285
7.34619e-05
-2.91958
7.63699e-05
-3.13073
7.89837e-05
-3.35698
8.04098e-05
-3.59965
8.0962e-05
-3.85994
8.01025e-05
-4.13895
7.79276e-05
-4.43817
7.34796e-05
-4.75901
6.73277e-05
-5.10297
5.82411e-05
-5.47195
4.72108e-05
-5.86753
3.47945e-05
-6.29169
1.78577e-05
-6.74636
8.97439e-06
-0.775392
1.04432e-05
-0.831485
1.34223e-05
-0.891583
1.70304e-05
-0.955974
2.0772e-05
-1.02495
2.46518e-05
-1.09915
2.83603e-05
-1.17856
3.40775e-05
-1.26375
4.13562e-05
-1.35512
4.63269e-05
-1.45291
4.61244e-05
-1.558
4.6916e-05
-1.6706
4.86589e-05
-1.79139
5.08243e-05
-1.9208
5.48915e-05
-2.0596
5.96947e-05
-2.2085
6.4263e-05
-2.36811
6.79771e-05
-2.53933
7.18346e-05
-2.72285
7.51978e-05
-2.91958
7.84321e-05
-3.13073
8.07369e-05
-3.35698
8.2265e-05
-3.59966
8.27081e-05
-3.85994
8.19114e-05
-4.13895
7.93023e-05
-4.43818
7.51325e-05
-4.75902
6.8378e-05
-5.10298
5.92538e-05
-5.47196
4.8578e-05
-5.86754
3.52054e-05
-6.29171
1.84259e-05
-6.74638
7.2253e-06
-0.723121
9.47332e-06
-0.775391
1.14664e-05
-0.831483
1.49948e-05
-0.891581
1.89232e-05
-0.955972
2.29278e-05
-1.02495
2.58392e-05
-1.09915
2.89308e-05
-1.17855
3.57649e-05
-1.26374
4.39401e-05
-1.35512
4.72102e-05
-1.45291
4.65347e-05
-1.558
4.73692e-05
-1.6706
4.94032e-05
-1.79139
5.18265e-05
-1.9208
5.61991e-05
-2.05959
6.1842e-05
-2.2085
6.60089e-05
-2.36811
6.98465e-05
-2.53932
7.34425e-05
-2.72285
7.73214e-05
-2.91958
8.01407e-05
-3.13073
8.26062e-05
-3.35698
8.4086e-05
-3.59966
8.46241e-05
-3.85995
8.35016e-05
-4.13896
8.10689e-05
-4.43818
7.64442e-05
-4.75903
6.97859e-05
-5.10299
6.06458e-05
-5.47197
4.97737e-05
-5.86755
3.6027e-05
-6.29173
1.86785e-05
-6.74639
5.37749e-06
-0.674404
7.53359e-06
-0.723119
1.04824e-05
-0.77539
1.2817e-05
-0.831481
1.62358e-05
-0.891579
2.11533e-05
-0.95597
2.55086e-05
-1.02495
2.66936e-05
-1.09915
3.06907e-05
-1.17855
3.78324e-05
-1.26373
4.54273e-05
-1.35512
4.66275e-05
-1.45291
4.62915e-05
-1.558
4.8265e-05
-1.6706
5.01438e-05
-1.79139
5.30396e-05
-1.9208
5.83938e-05
-2.05959
6.34012e-05
-2.2085
6.74592e-05
-2.3681
7.15055e-05
-2.53932
7.55742e-05
-2.72285
7.89439e-05
-2.91958
8.20514e-05
-3.13073
8.44494e-05
-3.35698
8.60304e-05
-3.59966
8.62438e-05
-3.85995
8.52778e-05
-4.13896
8.25723e-05
-4.43819
7.79176e-05
-4.75904
7.12367e-05
-5.103
6.171e-05
-5.47198
5.05672e-05
-5.86757
3.62114e-05
-6.29174
1.90476e-05
-6.74641
5.8675e-06
-0.628962
6.0411e-06
-0.674402
8.31768e-06
-0.723117
1.16235e-05
-0.775389
1.42119e-05
-0.831479
1.81409e-05
-0.891576
2.39659e-05
-0.955968
2.76294e-05
-1.02495
2.85777e-05
-1.09915
3.21891e-05
-1.17854
3.93958e-05
-1.26373
4.51256e-05
-1.35512
4.66454e-05
-1.45291
4.62021e-05
-1.558
4.85978e-05
-1.6706
5.12295e-05
-1.79139
5.45671e-05
-1.92079
6.02098e-05
-2.05959
6.498e-05
-2.20849
6.91617e-05
-2.3681
7.34421e-05
-2.53932
7.71786e-05
-2.72284
8.08659e-05
-2.91958
8.38637e-05
-3.13072
8.64043e-05
-3.35698
8.76993e-05
-3.59966
8.81137e-05
-3.85995
8.69498e-05
-4.13896
8.41502e-05
-4.43819
7.92826e-05
-4.75905
7.22736e-05
-5.10301
6.28742e-05
-5.472
5.14969e-05
-5.86758
3.67653e-05
-6.29176
1.9357e-05
-6.74643
5.71932e-06
-0.586575
6.66208e-06
-0.628963
7.60783e-06
-0.674402
9.34383e-06
-0.723115
1.30642e-05
-0.775388
1.61055e-05
-0.831477
2.09969e-05
-0.891573
2.63944e-05
-0.955967
2.9724e-05
-1.02495
3.0223e-05
-1.09915
3.38735e-05
-1.17854
4.02069e-05
-1.26372
4.40164e-05
-1.35512
4.50897e-05
-1.45291
4.67944e-05
-1.558
4.88152e-05
-1.67059
5.22127e-05
-1.79139
5.65216e-05
-1.92079
6.21474e-05
-2.05958
6.6363e-05
-2.20849
7.1064e-05
-2.3681
7.50841e-05
-2.53932
7.90321e-05
-2.72284
8.26438e-05
-2.91958
8.58449e-05
-3.13072
8.80966e-05
-3.35698
8.96137e-05
-3.59966
8.98364e-05
-3.85996
8.85885e-05
-4.13897
8.56656e-05
-4.4382
8.08213e-05
-4.75905
7.38181e-05
-5.10302
6.39204e-05
-5.47201
5.19753e-05
-5.8676
3.74359e-05
-6.29178
1.96731e-05
-6.74645
5.62564e-06
-0.547038
6.2263e-06
-0.586574
7.98591e-06
-0.628963
9.29072e-06
-0.674402
1.10246e-05
-0.723112
1.47869e-05
-0.775387
1.91221e-05
-0.831475
2.40198e-05
-0.89157
2.83224e-05
-0.955966
3.18407e-05
-1.02495
3.22429e-05
-1.09914
3.59117e-05
-1.17853
4.02596e-05
-1.26372
4.32599e-05
-1.35511
4.49952e-05
-1.45291
4.72873e-05
-1.558
4.97891e-05
-1.67059
5.37569e-05
-1.79138
5.83552e-05
-1.92079
6.3943e-05
-2.05958
6.81739e-05
-2.20849
7.26181e-05
-2.3681
7.67612e-05
-2.53931
8.08202e-05
-2.72284
8.45937e-05
-2.91958
8.75259e-05
-3.13072
9.00247e-05
-3.35698
9.13815e-05
-3.59966
9.1552e-05
-3.85996
9.02275e-05
-4.13897
8.73206e-05
-4.43821
8.21853e-05
-4.75906
7.48031e-05
-5.10303
6.48983e-05
-5.47202
5.3109e-05
-5.86761
3.78602e-05
-6.2918
2.00119e-05
-6.74647
5.58221e-06
-0.510173
5.87768e-06
-0.547038
7.05703e-06
-0.586574
9.13155e-06
-0.628963
1.10326e-05
-0.674402
1.29252e-05
-0.723111
1.75953e-05
-0.775385
2.22832e-05
-0.831473
2.67506e-05
-0.891569
2.99522e-05
-0.955964
3.3399e-05
-1.02495
3.44775e-05
-1.09914
3.72343e-05
-1.17853
4.0715e-05
-1.26372
4.35686e-05
-1.35511
4.44525e-05
-1.4529
4.81234e-05
-1.558
5.10015e-05
-1.67059
5.57503e-05
-1.79138
6.02866e-05
-1.92078
6.54338e-05
-2.05958
6.97984e-05
-2.20849
7.42482e-05
-2.36809
7.85737e-05
-2.53931
8.26978e-05
-2.72284
8.62678e-05
-2.91957
8.94671e-05
-3.13072
9.18156e-05
-3.35699
9.31435e-05
-3.59966
9.32537e-05
-3.85996
9.19834e-05
-4.13898
8.88241e-05
-4.43821
8.35616e-05
-4.75907
7.61577e-05
-5.10305
6.61119e-05
-5.47204
5.36334e-05
-5.86763
3.86027e-05
-6.29182
2.02484e-05
-6.74649
5.42176e-06
-0.475787
6.092e-06
-0.510173
6.39958e-06
-0.547037
7.76906e-06
-0.586572
1.0388e-05
-0.628962
1.30101e-05
-0.674402
1.54238e-05
-0.723108
2.00266e-05
-0.775383
2.50781e-05
-0.831472
2.85371e-05
-0.891567
3.08706e-05
-0.955961
3.50604e-05
-1.02495
3.55502e-05
-1.09914
3.84175e-05
-1.17853
4.11482e-05
-1.26372
4.28693e-05
-1.35511
4.47414e-05
-1.4529
4.88833e-05
-1.55799
5.26763e-05
-1.67059
5.76034e-05
-1.79138
6.20308e-05
-1.92078
6.71655e-05
-2.05958
7.13475e-05
-2.20848
7.60024e-05
-2.36809
8.03529e-05
-2.53931
8.43682e-05
-2.72284
8.81699e-05
-2.91957
9.12575e-05
-3.13072
9.35953e-05
-3.35699
9.48909e-05
-3.59967
9.5086e-05
-3.85996
9.35928e-05
-4.13898
9.03153e-05
-4.43822
8.49163e-05
-4.75908
7.73682e-05
-5.10306
6.70269e-05
-5.47205
5.47166e-05
-5.86765
3.89185e-05
-6.29183
2.0619e-05
-6.74651
4.96054e-06
-0.443721
5.79838e-06
-0.475787
6.78642e-06
-0.510174
7.02065e-06
-0.547036
9.06743e-06
-0.586571
1.25629e-05
-0.628962
1.47466e-05
-0.674401
1.80036e-05
-0.723106
2.22297e-05
-0.77538
2.76252e-05
-0.831471
2.95225e-05
-0.891566
3.20837e-05
-0.955958
3.55168e-05
-1.02495
3.6097e-05
-1.09914
3.89161e-05
-1.17852
4.08615e-05
-1.26371
4.25323e-05
-1.35511
4.61061e-05
-1.4529
4.97006e-05
-1.55799
5.4398e-05
-1.67058
5.92583e-05
-1.79138
6.35364e-05
-1.92077
6.8594e-05
-2.05957
7.30424e-05
-2.20848
7.7743e-05
-2.36809
8.19874e-05
-2.53931
8.62204e-05
-2.72283
8.99538e-05
-2.91957
9.30452e-05
-3.13072
9.53657e-05
-3.35699
9.67733e-05
-3.59967
9.67641e-05
-3.85997
9.51863e-05
-4.13899
9.17908e-05
-4.43823
8.63825e-05
-4.75909
7.85933e-05
-5.10307
6.82158e-05
-5.47206
5.52181e-05
-5.86766
3.96289e-05
-6.29185
2.08361e-05
-6.74653
4.99816e-06
-0.413816
5.17841e-06
-0.44372
5.99086e-06
-0.475786
7.18997e-06
-0.510174
8.37232e-06
-0.547035
1.06956e-05
-0.586569
1.40432e-05
-0.628961
1.69265e-05
-0.6744
2.01249e-05
-0.723104
2.48648e-05
-0.775377
2.89189e-05
-0.83147
3.04223e-05
-0.891564
3.22597e-05
-0.955955
3.4836e-05
-1.02495
3.65817e-05
-1.09914
3.88391e-05
-1.17852
4.06005e-05
-1.26371
4.29063e-05
-1.35511
4.66413e-05
-1.45289
5.10449e-05
-1.55799
5.64001e-05
-1.67058
6.05312e-05
-1.79137
6.53584e-05
-1.92077
7.00989e-05
-2.05957
7.47075e-05
-2.20848
7.92786e-05
-2.36809
8.38064e-05
-2.53931
8.79819e-05
-2.72283
9.17114e-05
-2.91957
9.48199e-05
-3.13072
9.72703e-05
-3.35699
9.8499e-05
-3.59967
9.84287e-05
-3.85997
9.67639e-05
-4.13899
9.33924e-05
-4.43824
8.77136e-05
-4.7591
7.98413e-05
-5.10308
6.91269e-05
-5.47208
5.61691e-05
-5.86768
4.00375e-05
-6.29187
2.11862e-05
-6.74656
4.55559e-06
-0.385919
5.11214e-06
-0.413816
5.56433e-06
-0.44372
6.35772e-06
-0.475785
8.52912e-06
-0.510174
9.85907e-06
-0.547035
1.19536e-05
-0.586567
1.61881e-05
-0.628961
1.90897e-05
-0.674399
2.17913e-05
-0.723101
2.65844e-05
-0.775375
3.00413e-05
-0.83147
3.05198e-05
-0.891563
3.19161e-05
-0.955952
3.44559e-05
-1.02495
3.69528e-05
-1.09913
3.93662e-05
-1.17852
4.11458e-05
-1.26371
4.36227e-05
-1.3551
4.78822e-05
-1.45289
5.31859e-05
-1.55798
5.77379e-05
-1.67058
6.22883e-05
-1.79137
6.6634e-05
-1.92077
7.16071e-05
-2.05957
7.62683e-05
-2.20847
8.10814e-05
-2.36808
8.55031e-05
-2.5393
8.97067e-05
-2.72283
9.34762e-05
-2.91957
9.67304e-05
-3.13072
9.90201e-05
-3.35699
0.000100212
-3.59967
0.000100078
-3.85997
9.84761e-05
-4.139
9.48393e-05
-4.43824
8.91577e-05
-4.75911
8.10027e-05
-5.10309
7.01403e-05
-5.47209
5.68256e-05
-5.8677
4.06447e-05
-6.29189
2.14008e-05
-6.74658
4.51808e-06
-0.359925
4.42151e-06
-0.385919
5.13707e-06
-0.413815
6.05288e-06
-0.44372
6.83038e-06
-0.475784
8.7079e-06
-0.510173
1.10649e-05
-0.547034
1.39594e-05
-0.586565
1.83488e-05
-0.62896
2.08027e-05
-0.674398
2.41845e-05
-0.723099
2.82139e-05
-0.775373
3.09125e-05
-0.83147
3.04011e-05
-0.891561
3.21831e-05
-0.95595
3.40013e-05
-1.02495
3.7385e-05
-1.09913
3.98317e-05
-1.17852
4.17008e-05
-1.26371
4.48019e-05
-1.3551
4.98451e-05
-1.45289
5.47337e-05
-1.55798
5.9017e-05
-1.67057
6.34188e-05
-1.79137
6.8254e-05
-1.92076
7.31858e-05
-2.05956
7.79017e-05
-2.20847
8.2675e-05
-2.36808
8.72096e-05
-2.5393
9.1444e-05
-2.72283
9.53631e-05
-2.91957
9.84869e-05
-3.13072
0.000100757
-3.35699
0.00010191
-3.59967
0.000101867
-3.85998
0.000100025
-4.139
9.64187e-05
-4.43825
9.04589e-05
-4.75912
8.21201e-05
-5.1031
7.11751e-05
-5.4721
5.76467e-05
-5.86771
4.10776e-05
-6.29191
2.17609e-05
-6.7466
4.07246e-06
-0.335657
4.24856e-06
-0.359925
4.16775e-06
-0.385918
5.32862e-06
-0.413815
6.22669e-06
-0.443719
7.05973e-06
-0.475782
9.39042e-06
-0.510171
1.21726e-05
-0.547032
1.62254e-05
-0.586563
1.97695e-05
-0.628959
2.27241e-05
-0.674396
2.7222e-05
-0.723098
2.95485e-05
-0.775372
3.10445e-05
-0.831471
3.07393e-05
-0.89156
3.22779e-05
-0.955948
3.41339e-05
-1.02494
3.76512e-05
-1.09913
4.01661e-05
-1.17852
4.26617e-05
-1.26371
4.62051e-05
-1.3551
5.18777e-05
-1.45288
5.59519e-05
-1.55798
6.02852e-05
-1.67057
6.52725e-05
-1.79136
6.9663e-05
-1.92076
7.4592e-05
-2.05956
7.95617e-05
-2.20847
8.43531e-05
-2.36808
8.88887e-05
-2.5393
9.33006e-05
-2.72283
9.71082e-05
-2.91957
0.000100232
-3.13072
0.000102481
-3.35699
0.000103753
-3.59968
0.00010349
-3.85998
0.000101714
-4.13901
9.78384e-05
-4.43826
9.17411e-05
-4.75913
8.33679e-05
-5.10312
7.21283e-05
-5.47212
5.82964e-05
-5.86773
4.1724e-05
-6.29193
2.19696e-05
-6.74662
4.04696e-06
-0.313029
3.57172e-06
-0.335656
3.80376e-06
-0.359925
4.3653e-06
-0.385917
5.13051e-06
-0.413814
6.43349e-06
-0.443718
7.89019e-06
-0.47578
1.0546e-05
-0.510169
1.35224e-05
-0.547029
1.80658e-05
-0.586561
2.06589e-05
-0.628957
2.53056e-05
-0.674395
2.9553e-05
-0.723098
3.03606e-05
-0.775371
3.0721e-05
-0.831471
3.15009e-05
-0.891559
3.2492e-05
-0.955947
3.41034e-05
-1.02494
3.80115e-05
-1.09913
4.07274e-05
-1.17852
4.39451e-05
-1.2637
4.75668e-05
-1.35509
5.35318e-05
-1.45288
5.6949e-05
-1.55798
6.19196e-05
-1.67057
6.6098e-05
-1.79136
7.13015e-05
-1.92076
7.63106e-05
-2.05956
8.10795e-05
-2.20846
8.59539e-05
-2.36808
9.0715e-05
-2.5393
9.50191e-05
-2.72282
9.88375e-05
-2.91956
0.000101963
-3.13072
0.000104351
-3.35699
0.000105426
-3.59968
0.000105258
-3.85998
0.000103236
-4.13901
9.92429e-05
-4.43826
9.31515e-05
-4.75914
8.44645e-05
-5.10313
7.30489e-05
-5.47213
5.92106e-05
-5.86775
4.21271e-05
-6.29195
2.22626e-05
-6.74664
4.11458e-06
-0.291941
3.56725e-06
-0.313029
3.31311e-06
-0.335656
3.58593e-06
-0.359924
4.31303e-06
-0.385916
5.20899e-06
-0.413812
7.01095e-06
-0.443718
8.7642e-06
-0.475779
1.14729e-05
-0.510167
1.52294e-05
-0.547026
1.93969e-05
-0.58656
2.17428e-05
-0.628953
2.73686e-05
-0.674392
3.11418e-05
-0.723099
3.01863e-05
-0.775371
3.05779e-05
-0.83147
3.20063e-05
-0.891558
3.26761e-05
-0.955945
3.48564e-05
-1.02494
3.85515e-05
-1.09913
4.18088e-05
-1.17851
4.48357e-05
-1.2637
4.94424e-05
-1.35509
5.4478e-05
-1.45288
5.82598e-05
-1.55797
6.28415e-05
-1.67056
6.80226e-05
-1.79136
7.27447e-05
-1.92075
7.76479e-05
-2.05955
8.27136e-05
-2.20846
8.77325e-05
-2.36807
9.23864e-05
-2.53929
9.67234e-05
-2.72282
0.000100559
-2.91956
0.000103841
-3.13072
0.000106052
-3.35699
0.000107249
-3.59968
0.000106855
-3.85999
0.000104742
-4.13902
0.000100786
-4.43827
9.44065e-05
-4.75915
8.55557e-05
-5.10314
7.41924e-05
-5.47215
5.97919e-05
-5.86777
4.26706e-05
-6.29197
2.25438e-05
-6.74667
4.10814e-06
-0.272265
3.53368e-06
-0.291941
3.38013e-06
-0.313029
3.0818e-06
-0.335655
3.21674e-06
-0.359923
4.3374e-06
-0.385915
5.9055e-06
-0.413811
7.67308e-06
-0.443716
9.82451e-06
-0.475777
1.29336e-05
-0.510165
1.70335e-05
-0.547024
2.03082e-05
-0.586558
2.25098e-05
-0.628948
2.88552e-05
-0.67439
3.12137e-05
-0.7231
2.98198e-05
-0.77537
3.01964e-05
-0.831468
3.17499e-05
-0.891557
3.32984e-05
-0.955944
3.57768e-05
-1.02493
3.91475e-05
-1.09912
4.29688e-05
-1.17851
4.64649e-05
-1.2637
5.12229e-05
-1.35508
5.53991e-05
-1.45288
5.93017e-05
-1.55797
6.44545e-05
-1.67056
6.90993e-05
-1.79135
7.42136e-05
-1.92075
7.93159e-05
-2.05955
8.43776e-05
-2.20846
8.93429e-05
-2.36807
9.40581e-05
-2.53929
9.842e-05
-2.72282
0.000102423
-2.91956
0.000105552
-3.13072
0.000107905
-3.35699
0.000108898
-3.59968
0.000108437
-3.85999
0.000106395
-4.13902
0.000102163
-4.43828
9.56477e-05
-4.75916
8.68945e-05
-5.10315
7.4975e-05
-5.47216
6.05739e-05
-5.86778
4.32029e-05
-6.29199
2.27885e-05
-6.74669
4.24391e-06
-0.253916
3.52048e-06
-0.272265
3.06146e-06
-0.291941
3.00684e-06
-0.313029
2.53093e-06
-0.335655
3.03971e-06
-0.359921
4.80137e-06
-0.385914
6.26457e-06
-0.41381
8.46577e-06
-0.443715
1.12994e-05
-0.475775
1.43959e-05
-0.510162
1.89981e-05
-0.547023
2.09929e-05
-0.586557
2.33201e-05
-0.628943
2.87627e-05
-0.674388
2.97643e-05
-0.7231
2.93644e-05
-0.775369
2.96894e-05
-0.831466
3.18663e-05
-0.891556
3.40108e-05
-0.955942
3.60218e-05
-1.02493
4.03357e-05
-1.09912
4.41736e-05
-1.17851
4.79902e-05
-1.26369
5.26454e-05
-1.35508
5.60399e-05
-1.45287
6.08341e-05
-1.55796
6.56906e-05
-1.67056
7.07027e-05
-1.79135
7.56807e-05
-1.92075
8.08452e-05
-2.05955
8.59755e-05
-2.20845
9.0968e-05
-2.36807
9.57144e-05
-2.53929
0.000100258
-2.72282
0.000104125
-2.91956
0.000107415
-3.13072
0.000109584
-3.35699
0.000110533
-3.59968
0.000110172
-3.86
0.000107874
-4.13903
0.000103527
-4.43829
9.71721e-05
-4.75917
8.78211e-05
-5.10317
7.5978e-05
-5.47218
6.1335e-05
-5.8678
4.36636e-05
-6.29201
2.30655e-05
-6.74671
4.45548e-06
-0.236797
3.78894e-06
-0.253916
2.7426e-06
-0.272265
2.24545e-06
-0.29194
2.18982e-06
-0.313029
2.20167e-06
-0.335654
3.38076e-06
-0.35992
4.7588e-06
-0.385912
7.24333e-06
-0.413809
9.55954e-06
-0.443713
1.28037e-05
-0.475774
1.63195e-05
-0.51016
2.05e-05
-0.547022
2.19003e-05
-0.586555
2.37161e-05
-0.628938
2.77629e-05
-0.674386
2.79488e-05
-0.723098
2.82119e-05
-0.775368
2.92583e-05
-0.831463
3.19907e-05
-0.891554
3.43756e-05
-0.95594
3.68725e-05
-1.02493
4.17795e-05
-1.09912
4.54838e-05
-1.17851
4.99886e-05
-1.26369
5.38908e-05
-1.35508
5.76652e-05
-1.45287
6.22368e-05
-1.55796
6.71551e-05
-1.67055
7.1954e-05
-1.79135
7.72546e-05
-1.92074
8.242e-05
-2.05954
8.75296e-05
-2.20845
9.2572e-05
-2.36806
9.75141e-05
-2.53928
0.000101938
-2.72282
0.000105978
-2.91956
0.000109105
-3.13072
0.00011125
-3.35699
0.000112326
-3.59969
0.000111728
-3.86
0.00010934
-4.13904
0.000105199
-4.4383
9.82326e-05
-4.75918
8.90033e-05
-5.10318
7.69686e-05
-5.4722
6.2001e-05
-5.86782
4.41873e-05
-6.29204
2.33013e-05
-6.74673
4.55087e-06
-0.220838
4.02722e-06
-0.236797
3.51725e-06
-0.253917
1.73532e-06
-0.272264
1.51898e-06
-0.29194
1.65596e-06
-0.313028
2.52584e-06
-0.335653
3.27855e-06
-0.359919
5.28372e-06
-0.38591
8.15576e-06
-0.413807
1.10359e-05
-0.443712
1.42497e-05
-0.475772
1.79974e-05
-0.510157
2.19522e-05
-0.547022
2.30383e-05
-0.586555
2.39262e-05
-0.628934
2.66842e-05
-0.674384
2.69176e-05
-0.723097
2.79199e-05
-0.775366
2.83588e-05
-0.83146
3.22293e-05
-0.891552
3.55934e-05
-0.955939
3.87236e-05
-1.02492
4.34609e-05
-1.09912
4.71081e-05
-1.1785
5.13723e-05
-1.26369
5.50058e-05
-1.35508
5.89359e-05
-1.45287
6.36696e-05
-1.55796
6.83561e-05
-1.67055
7.35926e-05
-1.79134
7.86706e-05
-1.92074
8.39023e-05
-2.05954
8.90946e-05
-2.20845
9.43215e-05
-2.36806
9.91577e-05
-2.53928
0.000103767
-2.72281
0.000107662
-2.91956
0.000110784
-3.13072
0.000113076
-3.35699
0.000113937
-3.59969
0.000113272
-3.86
0.000111132
-4.13904
0.00010637
-4.4383
9.95817e-05
-4.75919
9.0176e-05
-5.10319
7.78312e-05
-5.47221
6.27526e-05
-5.86784
4.46337e-05
-6.29206
2.361e-05
-6.74676
4.79689e-06
-0.205951
3.96744e-06
-0.220838
3.63444e-06
-0.236797
2.81332e-06
-0.253918
1.23482e-06
-0.272264
1.11889e-06
-0.291939
1.37081e-06
-0.313027
2.58382e-06
-0.335652
3.29078e-06
-0.359917
6.09991e-06
-0.385908
9.25172e-06
-0.413805
1.25199e-05
-0.44371
1.62459e-05
-0.47577
1.94914e-05
-0.510155
2.30365e-05
-0.547022
2.4241e-05
-0.586555
2.42553e-05
-0.628931
2.60778e-05
-0.674384
2.65083e-05
-0.723095
2.74976e-05
-0.775365
2.84495e-05
-0.831456
3.31281e-05
-0.891549
3.68679e-05
-0.955937
4.05899e-05
-1.02492
4.40375e-05
-1.09911
4.76948e-05
-1.1785
5.25257e-05
-1.26369
5.61618e-05
-1.35507
6.02301e-05
-1.45286
6.47169e-05
-1.55795
6.99272e-05
-1.67055
7.48619e-05
-1.79134
8.01707e-05
-1.92074
8.5402e-05
-2.05954
9.07844e-05
-2.20844
9.59179e-05
-2.36806
0.000100948
-2.53928
0.000105431
-2.72281
0.000109335
-2.91956
0.000112623
-3.13072
0.00011472
-3.35699
0.000115537
-3.59969
0.000115155
-3.86001
0.000112396
-4.13905
0.000107855
-4.43831
0.00010092
-4.7592
9.11992e-05
-5.10321
7.88038e-05
-5.47223
6.33984e-05
-5.86786
4.52196e-05
-6.29208
2.37967e-05
-6.74678
5.03746e-06
-0.192073
4.24464e-06
-0.205951
3.25055e-06
-0.220837
2.86509e-06
-0.236797
2.07622e-06
-0.253919
7.62606e-07
-0.272264
6.74053e-07
-0.291938
1.45815e-06
-0.313026
2.46371e-06
-0.335651
4.27042e-06
-0.359915
7.64817e-06
-0.385907
1.06754e-05
-0.413804
1.41549e-05
-0.443708
1.84432e-05
-0.475769
2.06252e-05
-0.510152
2.2699e-05
-0.547021
2.48375e-05
-0.586555
2.41869e-05
-0.62893
2.58711e-05
-0.674383
2.60224e-05
-0.723094
2.74212e-05
-0.775364
2.93984e-05
-0.831452
3.32702e-05
-0.891546
3.7871e-05
-0.955934
4.18293e-05
-1.02492
4.48671e-05
-1.09911
4.91359e-05
-1.1785
5.34155e-05
-1.26368
5.71951e-05
-1.35507
6.12122e-05
-1.45286
6.63228e-05
-1.55795
7.11175e-05
-1.67054
7.63516e-05
-1.79134
8.15446e-05
-1.92073
8.70407e-05
-2.05953
9.23329e-05
-2.20844
9.76599e-05
-2.36805
0.00010258
-2.53928
0.000107085
-2.72281
0.000111169
-2.91955
0.000114282
-3.13072
0.000116355
-3.35699
0.000117484
-3.59969
0.000116494
-3.86001
0.000113993
-4.13905
0.00010933
-4.43832
0.000102092
-4.75921
9.23539e-05
-5.10322
7.96411e-05
-5.47224
6.42413e-05
-5.86788
4.55731e-05
-6.2921
2.40962e-05
-6.74681
5.27155e-06
-0.179124
4.68267e-06
-0.192073
3.45075e-06
-0.205951
2.49842e-06
-0.220837
1.8696e-06
-0.236797
1.49817e-06
-0.253919
3.80305e-07