/*--------------------------------*- C++ -*----------------------------------*\
| =========                 |                                                 |
| \\      /  F ield         | OpenFOAM: The Open Source CFD Toolbox           |
|  \\    /   O peration     | Version:  2212                                  |
|   \\  /    A nd           | Website:  www.openfoam.com                      |
|    \\/     M anipulation  |                                                 |
\*---------------------------------------------------------------------------*/
FoamFile
{
    version     2.0;
    format      ascii;
    arch        "LSB;label=32;scalar=64";
    class       volScalarField;
    location    "100";
    object      k;
}
// * * * * * * * * * * * * * * * * * * * * * * * * * * * * * * * * * * * * * //

dimensions      [0 2 -2 0 0 0 0];

internalField   nonuniform List<scalar> 
165000
(
4.8785e-06
8.3561e-07
4.86112e-06
7.61907e-07
8.63461e-07
4.79688e-06
8.97466e-07
7.86697e-07
8.86169e-07
4.83168e-06
1.0517e-06
8.98858e-07
8.04273e-07
9.04115e-07
4.84047e-06
3.64821e-06
9.64869e-07
8.41477e-07
8.19876e-07
9.23668e-07
4.87424e-06
2.63187e-08
3.26635e-06
7.7435e-07
8.06939e-07
8.21718e-07
9.56567e-07
4.91325e-06
1.90502e-08
1.28542e-07
2.54874e-06
8.43381e-07
7.93508e-07
8.20967e-07
9.88919e-07
4.97767e-06
8.62551e-09
1.61134e-08
2.75946e-07
2.10011e-06
9.21966e-07
7.92527e-07
8.18341e-07
1.02015e-06
5.07029e-06
4.99619e-10
7.32805e-09
1.64421e-08
4.11828e-07
1.83744e-06
1.01453e-06
7.87903e-07
8.04283e-07
1.0405e-06
5.19381e-06
2.42268e-09
4.35695e-10
5.70838e-09
1.9557e-08
5.13163e-07
1.78146e-06
1.01839e-06
7.70866e-07
7.8008e-07
1.04294e-06
5.27157e-06
1.17814e-08
2.05452e-09
3.19348e-10
4.59557e-09
2.66914e-08
6.00495e-07
1.6233e-06
9.6664e-07
7.439e-07
7.48287e-07
9.98877e-07
5.33509e-06
7.76268e-08
1.69052e-08
2.29329e-09
3.17226e-10
4.01383e-09
3.49993e-08
6.73304e-07
1.62415e-06
8.96132e-07
7.23501e-07
7.106e-07
9.50782e-07
5.40311e-06
5.00868e-07
6.31547e-07
6.33763e-08
5.54011e-09
3.8754e-10
3.55644e-09
4.713e-08
7.34713e-07
1.64042e-06
8.94298e-07
6.96282e-07
6.68491e-07
9.23749e-07
5.47166e-06
0.000480494
3.16562e-05
3.34714e-06
2.80032e-07
1.75471e-08
8.98375e-10
3.7441e-09
6.22509e-08
8.0229e-07
1.58334e-06
8.74132e-07
6.62622e-07
6.20825e-07
9.26933e-07
5.55307e-06
0.000618436
0.00045619
9.64069e-05
9.49329e-06
8.41457e-07
6.12214e-08
2.02462e-09
3.93194e-09
7.40525e-08
8.9916e-07
1.63133e-06
8.23231e-07
6.29484e-07
5.76696e-07
9.36906e-07
5.68073e-06
1.02294e-05
0.000342468
0.000384892
0.000137536
1.97499e-05
2.54774e-06
1.52738e-07
5.5719e-09
4.46592e-09
9.18071e-08
9.81817e-07
1.70946e-06
8.05345e-07
6.01157e-07
5.39892e-07
9.40259e-07
5.83727e-06
4.04284e-07
1.31864e-06
0.000133667
0.000297194
0.000169032
4.37627e-05
4.43941e-06
3.13168e-07
1.2103e-08
4.84815e-09
1.19998e-07
1.0699e-06
1.71466e-06
7.52644e-07
5.62335e-07
5.11234e-07
9.42281e-07
6.01824e-06
4.22593e-07
4.33036e-07
4.63052e-07
3.8562e-05
0.0002129
0.000160834
5.30519e-05
7.07406e-06
6.55095e-07
2.38367e-08
6.21056e-09
1.41801e-07
1.26153e-06
1.63956e-06
7.10808e-07
5.44996e-07
4.99587e-07
9.62843e-07
6.19115e-06
4.34486e-07
4.32682e-07
4.26917e-07
4.49745e-07
1.01339e-05
0.000133162
0.000138923
6.84736e-05
1.12203e-05
8.85407e-07
3.71239e-08
7.77854e-09
1.7672e-07
1.35008e-06
1.78576e-06
7.00649e-07
5.33507e-07
4.98416e-07
9.75092e-07
6.44293e-06
4.0992e-07
4.59643e-07
4.19545e-07
4.534e-07
4.95952e-07
2.8753e-06
7.05183e-05
0.000109556
6.34234e-05
1.33924e-05
1.3785e-06
5.83843e-08
9.82003e-09
2.60626e-07
1.54551e-06
1.7957e-06
6.8666e-07
5.34134e-07
5.00406e-07
9.67541e-07
6.86911e-06
4.06472e-07
4.37135e-07
4.46356e-07
4.4429e-07
4.6646e-07
6.04245e-07
1.18102e-06
2.56359e-05
7.50619e-05
5.17629e-05
1.83301e-05
1.67786e-06
7.27186e-08
1.48499e-08
3.33841e-07
1.71195e-06
1.55473e-06
7.01425e-07
5.42116e-07
5.02083e-07
1.02199e-06
7.579e-06
4.06268e-07
4.18775e-07
4.55865e-07
4.41024e-07
4.67909e-07
5.15027e-07
6.0926e-07
6.94987e-07
9.02973e-06
4.90596e-05
4.06872e-05
1.66466e-05
1.92309e-06
1.07943e-07
2.05875e-08
4.70205e-07
2.02859e-06
9.40362e-07
7.43761e-07
5.57014e-07
5.03578e-07
1.08898e-06
8.71395e-06
3.74921e-07
4.16405e-07
4.2102e-07
4.61209e-07
4.38497e-07
4.77607e-07
5.52034e-07
5.25262e-07
5.33142e-07
3.16896e-06
2.90169e-05
3.10291e-05
1.45831e-05
2.50276e-06
1.2206e-07
3.16661e-08
6.94913e-07
2.04712e-06
7.80653e-07
7.77094e-07
5.79891e-07
5.17341e-07
1.11231e-06
1.05046e-05
3.26942e-07
3.89126e-07
4.15086e-07
4.32109e-07
4.48548e-07
4.40763e-07
4.84051e-07
4.95344e-07
4.49896e-07
4.36796e-07
1.22752e-06
1.5643e-05
2.3089e-05
1.20772e-05
2.20487e-06
1.58998e-07
5.11014e-08
8.67e-07
2.04925e-06
7.75615e-07
8.42366e-07
6.08558e-07
5.47092e-07
1.34011e-06
1.31312e-05
2.95403e-07
3.26961e-07
3.87703e-07
4.11787e-07
4.38191e-07
4.41903e-07
4.31909e-07
4.8911e-07
4.16012e-07
3.86802e-07
3.85823e-07
6.57277e-07
7.25255e-06
1.61795e-05
9.42115e-06
1.9319e-06
1.33684e-07
7.46478e-08
1.16835e-06
2.03566e-06
9.60688e-07
8.86733e-07
6.45768e-07
5.93239e-07
1.62213e-06
1.67915e-05
2.89572e-07
2.98869e-07
3.23863e-07
3.88011e-07
4.07667e-07
4.37402e-07
4.25255e-07
4.12522e-07
4.15917e-07
3.66741e-07
3.53275e-07
4.19321e-07
5.66562e-07
3.51782e-06
1.0994e-05
7.09431e-06
1.62695e-06
1.11604e-07
1.22327e-07
1.53067e-06
1.92387e-06
1.17761e-05
9.88014e-07
6.90362e-07
6.51852e-07
2.02828e-06
2.16395e-05
2.92164e-07
2.92261e-07
3.00084e-07
3.31177e-07
3.92364e-07
4.0562e-07
4.26877e-07
3.91661e-07
4.05598e-07
3.57409e-07
3.45278e-07
3.88746e-07
5.01521e-07
5.96966e-07
1.92798e-06
7.40157e-06
5.2048e-06
1.34606e-06
1.10673e-07
1.81732e-07
1.6674e-06
2.5864e-06
1.03636e-05
1.05144e-06
7.38559e-07
7.30067e-07
2.55214e-06
2.75115e-05
3.04323e-07
2.95924e-07
2.9179e-07
2.9637e-07
3.27929e-07
3.87163e-07
4.00529e-07
3.92699e-07
3.56127e-07
3.65606e-07
3.13499e-07
3.68895e-07
4.30103e-07
5.88052e-07
6.70241e-07
1.25494e-06
5.05309e-06
3.979e-06
1.12295e-06
1.07684e-07
3.38088e-07
1.78458e-06
4.54451e-06
1.92925e-06
1.11012e-06
7.92425e-07
8.26125e-07
3.13571e-06
3.41243e-05
3.28141e-07
3.0658e-07
2.97353e-07
2.92605e-07
2.99469e-07
3.34005e-07
3.81097e-07
3.85403e-07
3.57906e-07
3.25405e-07
3.33248e-07
3.05135e-07
4.05988e-07
5.13116e-07
6.74073e-07
7.14185e-07
9.55463e-07
3.52254e-06
2.97328e-06
1.074e-06
1.06657e-07
4.79162e-07
1.94052e-06
4.39842e-06
1.61705e-06
1.14117e-06
8.4987e-07
9.40761e-07
3.83045e-06
4.08752e-05
3.51155e-07
3.26432e-07
3.12931e-07
2.99837e-07
2.93443e-07
2.97652e-07
3.26119e-07
3.6196e-07
3.56335e-07
3.26012e-07
3.11096e-07
3.12883e-07
3.12598e-07
4.38334e-07
6.50268e-07
7.33167e-07
7.42172e-07
8.55701e-07
2.44779e-06
2.29124e-06
1.00426e-06
9.70124e-08
6.14209e-07
2.26934e-06
4.10855e-06
1.54292e-06
1.17866e-06
9.10254e-07
1.0705e-06
4.50587e-06
4.73021e-05
3.60389e-07
3.33646e-07
3.23215e-07
3.17502e-07
3.01422e-07
2.92953e-07
2.95946e-07
3.27263e-07
3.42523e-07
3.25786e-07
3.07584e-07
3.08029e-07
3.06558e-07
3.30744e-07
5.25331e-07
7.06418e-07
7.69924e-07
7.92761e-07
8.83088e-07
2.01354e-06
2.05332e-06
8.62736e-07
1.08207e-07
7.26086e-07
2.5852e-06
3.84275e-06
1.61987e-06
1.2389e-06
9.66227e-07
1.21784e-06
5.14882e-06
5.29671e-05
3.7771e-07
3.4147e-07
3.26174e-07
3.22986e-07
3.13623e-07
3.03542e-07
2.91435e-07
2.95189e-07
3.30298e-07
3.17766e-07
3.09227e-07
3.05097e-07
3.08567e-07
3.07895e-07
3.74329e-07
6.29032e-07
7.84773e-07
8.58438e-07
9.56757e-07
1.06693e-06
2.01851e-06
2.06909e-06
8.33738e-07
1.04324e-07
8.33617e-07
2.88339e-06
3.69222e-06
1.68276e-06
1.27569e-06
1.01956e-06
1.37737e-06
5.68992e-06
5.78186e-05
4.2376e-07
3.57786e-07
3.31202e-07
3.19371e-07
3.15784e-07
3.1185e-07
2.99126e-07
2.89317e-07
2.93378e-07
3.08032e-07
3.08097e-07
3.06083e-07
3.05512e-07
3.08529e-07
3.12345e-07
5.05546e-07
7.04729e-07
8.91845e-07
1.07766e-06
1.53835e-06
1.77345e-06
2.24291e-06
2.09301e-06
8.09536e-07
1.14542e-07
9.26716e-07
3.22674e-06
3.51172e-06
1.75449e-06
1.33016e-06
1.07786e-06
1.54556e-06
6.11055e-06
6.18828e-05
4.9107e-07
3.8373e-07
3.50825e-07
3.24731e-07
3.13409e-07
3.10965e-07
3.06778e-07
2.95224e-07
2.83945e-07
2.9426e-07
2.99241e-07
3.06247e-07
3.05727e-07
3.07348e-07
3.09362e-07
3.32673e-07
6.27241e-07
8.1993e-07
1.10555e-06
1.68375e-06
2.26657e-06
2.45634e-06
2.64381e-06
2.19279e-06
7.30366e-07
1.20729e-07
1.16568e-06
3.44546e-06
3.30108e-06
1.86283e-06
1.39578e-06
1.14596e-06
1.71999e-06
6.45e-06
6.53557e-05
6.01069e-07
4.17497e-07
3.68284e-07
3.45767e-07
3.19493e-07
3.06354e-07
3.05681e-07
3.01805e-07
2.86462e-07
2.79969e-07
2.88515e-07
2.96421e-07
3.07721e-07
3.07373e-07
3.09265e-07
3.19844e-07
3.77784e-07
7.86493e-07
9.31174e-07
1.62723e-06
1.98365e-06
2.40332e-06
2.77746e-06
2.93951e-06
2.27444e-06
7.74677e-07
1.34521e-07
1.3959e-06
3.38891e-06
3.16296e-06
2.04284e-06
1.45391e-06
1.22366e-06
1.89741e-06
6.66425e-06
6.83184e-05
8.10066e-07
4.65332e-07
3.89492e-07
3.49929e-07
3.35204e-07
3.13301e-07
2.98806e-07
3.00819e-07
2.92215e-07
2.83732e-07
2.79417e-07
2.83244e-07
3.02485e-07
3.11474e-07
3.10097e-07
3.18725e-07
3.43741e-07
4.50524e-07
9.0746e-07
1.05839e-06
1.94887e-06
2.09999e-06
2.57153e-06
3.01064e-06
3.18467e-06
2.56158e-06
7.64952e-07
1.66083e-07
1.67608e-06
3.27365e-06
3.14247e-06
2.17621e-06
1.53481e-06
1.30955e-06
2.07058e-06
6.84773e-06
7.03945e-05
1.29058e-06
6.02167e-07
4.11441e-07
3.53637e-07
3.35545e-07
3.20766e-07
3.01329e-07
2.93978e-07
2.91309e-07
2.89804e-07
2.84576e-07
2.80803e-07
2.88072e-07
3.16785e-07
3.18926e-07
3.20681e-07
3.38461e-07
3.76114e-07
5.69776e-07
1.00921e-06
1.22947e-06
2.03357e-06
2.51688e-06
2.9983e-06
3.17442e-06
3.55102e-06
3.01099e-06
8.23241e-07
1.89286e-07
1.78056e-06
3.07758e-06
3.15996e-06
2.39259e-06
1.6006e-06
1.3956e-06
2.22882e-06
6.77102e-06
7.19569e-05
2.81681e-06
7.41321e-07
5.1829e-07
3.5718e-07
3.34935e-07
3.17429e-07
3.05924e-07
2.91904e-07
2.87752e-07
2.87315e-07
2.90072e-07
2.84498e-07
2.85008e-07
3.02751e-07
3.30774e-07
3.26046e-07
3.41153e-07
3.64487e-07
4.09304e-07
7.45148e-07
1.12284e-06
1.46254e-06
2.03028e-06
3.04677e-06
3.22902e-06
3.27703e-06
3.91591e-06
3.38376e-06
9.14915e-07
2.3242e-07
2.02121e-06
3.017e-06
3.24531e-06
2.55317e-06
1.68565e-06
1.48166e-06
2.35447e-06
5.28511e-06
7.42208e-05
3.394e-06
1.46083e-06
6.61922e-07
4.08404e-07
3.29467e-07
3.16469e-07
3.02635e-07
2.94078e-07
2.84714e-07
2.86662e-07
2.88044e-07
2.8944e-07
2.86956e-07
2.94741e-07
3.30994e-07
3.45922e-07
3.41838e-07
3.64545e-07
3.85298e-07
4.48832e-07
9.04887e-07
1.25155e-06
1.74593e-06
2.28725e-06
3.17996e-06
3.33935e-06
3.39838e-06
4.16596e-06
3.96971e-06
1.08886e-06
2.63164e-07
2.03653e-06
2.97938e-06
3.4485e-06
2.79347e-06
1.74851e-06
1.56063e-06
2.44346e-06
4.89501e-06
7.34559e-05
3.23466e-06
3.64497e-06
8.90089e-07
5.71151e-07
3.43671e-07
3.0948e-07
3.01747e-07
2.9027e-07
2.82044e-07
2.82333e-07
2.87156e-07
2.88743e-07
2.9056e-07
2.93581e-07
3.13327e-07
3.59711e-07
3.58959e-07
3.63322e-07
3.8241e-07
4.04863e-07
4.98753e-07
1.06337e-06
1.35461e-06
1.90845e-06
2.54722e-06
3.41795e-06
3.40595e-06
3.77787e-06
4.91185e-06
5.12779e-06
1.53768e-06
3.27195e-07
2.05286e-06
3.03745e-06
3.76106e-06
2.97335e-06
1.82777e-06
1.63402e-06
2.51785e-06
4.47821e-06
6.87586e-05
3.17311e-06
3.74099e-06
2.55499e-06
7.19447e-07
4.65775e-07
3.04272e-07
2.97156e-07
2.8962e-07
2.77041e-07
2.78011e-07
2.81469e-07
2.90241e-07
2.88756e-07
2.9348e-07
3.03725e-07
3.47843e-07
3.79961e-07
3.73376e-07
3.82022e-07
3.96705e-07
4.22274e-07
5.69552e-07
1.21271e-06
1.44326e-06
2.14861e-06
2.71076e-06
3.39266e-06
3.65873e-06
5.02099e-06
8.17706e-06
7.96978e-06
2.45488e-06
3.73717e-07
1.91524e-06
3.05786e-06
3.99322e-06
3.18815e-06
1.8818e-06
1.69691e-06
2.57105e-06
3.98374e-06
6.06033e-05
3.22e-06
3.49909e-06
4.43159e-06
1.3556e-06
6.36089e-07
3.47047e-07
2.9132e-07
2.82354e-07
2.76473e-07
2.74555e-07
2.77411e-07
2.82051e-07
2.90153e-07
2.92586e-07
3.0252e-07
3.22977e-07
3.88809e-07
4.07486e-07
3.87238e-07
3.97416e-07
4.06367e-07
4.51099e-07
6.62847e-07
1.30158e-06
1.50358e-06
2.40555e-06
3.03779e-06
3.76044e-06
5.00149e-06
8.98735e-06
1.25843e-05
1.17759e-05
3.47773e-06
4.78039e-07
1.86257e-06
3.06549e-06
4.11851e-06
3.31106e-06
1.95332e-06
1.75165e-06
2.59801e-06
3.64215e-06
5.32299e-05
2.94047e-06
3.62615e-06
4.10492e-06
4.13205e-06
8.46668e-07
5.26217e-07
2.98561e-07
2.8073e-07
2.76886e-07
2.72985e-07
2.7437e-07
2.77536e-07
2.84703e-07
2.95703e-07
3.02806e-07
3.18719e-07
3.46234e-07
4.16305e-07
4.20999e-07
4.03574e-07
4.06198e-07
4.22183e-07
4.90751e-07
7.85934e-07
1.36861e-06
1.5496e-06
2.63954e-06
3.22123e-06
5.33795e-06
7.97943e-06
1.33632e-05
1.63635e-05
1.48214e-05
5.10987e-06
5.68785e-07
1.79653e-06
3.03262e-06
4.16895e-06
3.47008e-06
2.00098e-06
1.79531e-06
2.62647e-06
3.35043e-06
4.83088e-05
2.89384e-06
3.30645e-06
3.80444e-06
4.91898e-06
2.06676e-06
6.91773e-07
3.65627e-07
2.78959e-07
2.7712e-07
2.69535e-07
2.73349e-07
2.75874e-07
2.81064e-07
2.94112e-07
3.03778e-07
3.18763e-07
3.35755e-07
3.69078e-07
4.39951e-07
4.29964e-07
4.0954e-07
4.19236e-07
4.47189e-07
5.45413e-07
9.15606e-07
1.40524e-06
1.6148e-06
2.9424e-06
3.67868e-06
8.05721e-06
1.04855e-05
1.57223e-05
1.89813e-05
1.73332e-05
7.01699e-06
7.77387e-07
1.72774e-06
3.10883e-06
4.23615e-06
3.59869e-06
2.0699e-06
1.83253e-06
2.64779e-06
3.10979e-06
4.41903e-05
3.16154e-06
3.07487e-06
3.46258e-06
4.28712e-06
5.11062e-06
1.10718e-06
5.71248e-07
3.06829e-07
2.72707e-07
2.69058e-07
2.69366e-07
2.74911e-07
2.80777e-07
2.89598e-07
3.10222e-07
3.18615e-07
3.34782e-07
3.5143e-07
4.00528e-07
4.51409e-07
4.37895e-07
4.2109e-07
4.38508e-07
4.82324e-07
6.18179e-07
1.04884e-06
1.4294e-06
1.72878e-06
3.20614e-06
4.34984e-06
1.0474e-05
1.18979e-05
1.73354e-05
2.1239e-05
2.24428e-05
1.0428e-05
1.03556e-06
1.72942e-06
3.13273e-06
4.35623e-06
3.76807e-06
2.11763e-06
1.86204e-06
2.67302e-06
2.92322e-06
4.15388e-05
4.23199e-06
3.15935e-06
3.28346e-06
3.62035e-06
5.30099e-06
3.37344e-06
7.90932e-07
4.05687e-07
2.85609e-07
2.68061e-07
2.68001e-07
2.70955e-07
2.80686e-07
2.89969e-07
3.05697e-07
3.24538e-07
3.35803e-07
3.48913e-07
3.61092e-07
4.2644e-07
4.57636e-07
4.45085e-07
4.40328e-07
4.6935e-07
5.33877e-07
7.18176e-07
1.1696e-06
1.46507e-06
1.89968e-06
3.5762e-06
5.3164e-06
1.1545e-05
1.20951e-05
2.09261e-05
2.90399e-05
3.23332e-05
1.51041e-05
1.42081e-06
1.85981e-06
3.38371e-06
4.48416e-06
3.89781e-06
2.18722e-06
1.88949e-06
2.6878e-06
2.76363e-06
4.05325e-05
6.57102e-06
4.23923e-06
3.37648e-06
3.44697e-06
4.08791e-06
5.72988e-06
1.56044e-06
6.37538e-07
3.41369e-07
2.7762e-07
2.67038e-07
2.6763e-07
2.77597e-07
2.92226e-07
3.06883e-07
3.2507e-07
3.39874e-07
3.48681e-07
3.55136e-07
3.69932e-07
4.4566e-07
4.62528e-07
4.47246e-07
4.67852e-07
5.14156e-07
6.12724e-07
8.48371e-07
1.27147e-06
1.52654e-06
2.1448e-06
3.94001e-06
7.03424e-06
1.14114e-05
1.63369e-05
2.99513e-05
4.40787e-05
4.34561e-05
2.04438e-05
1.85833e-06
2.30029e-06
3.78378e-06
5.24713e-06
4.09076e-06
2.23846e-06
1.91608e-06
2.70394e-06
2.60893e-06
3.91922e-05
1.01029e-05
6.47529e-06
4.17956e-06
3.522e-06
3.65605e-06
5.36755e-06
4.64452e-06
1.07989e-06
4.77429e-07
3.18362e-07
2.74508e-07
2.65676e-07
2.70358e-07
2.90335e-07
3.07043e-07
3.27321e-07
3.41699e-07
3.53606e-07
3.55213e-07
3.57294e-07
3.83472e-07
4.55937e-07
4.68961e-07
4.6986e-07
5.08833e-07
5.79766e-07
7.21038e-07
1.02658e-06
1.36603e-06
1.64683e-06
2.47091e-06
4.38666e-06
8.84624e-06
1.17485e-05
2.79261e-05
4.60638e-05
5.66958e-05
5.13403e-05
2.5496e-05
2.37171e-06
3.2403e-06
5.11113e-06
5.99998e-06
4.24664e-06
2.3133e-06
1.94261e-06
2.70876e-06
2.5273e-06
4.00134e-05
1.26441e-05
1.02283e-05
6.69298e-06
4.40317e-06
3.6029e-06
4.3156e-06
6.81563e-06
2.42834e-06
8.48331e-07
4.11726e-07
3.0829e-07
2.71997e-07
2.66784e-07
2.79066e-07
3.12055e-07
3.28927e-07
3.53454e-07
3.6175e-07
3.65839e-07
3.58317e-07
3.59146e-07
4.0469e-07
4.69218e-07
4.85616e-07
5.13903e-07
5.81206e-07
6.9139e-07
8.8647e-07
1.22931e-06
1.48685e-06
1.7846e-06
2.83701e-06
5.19051e-06
9.69363e-06
1.39734e-05
4.16115e-05
5.56038e-05
6.36084e-05
5.46768e-05
3.02191e-05
2.96353e-06
4.42302e-06
6.02751e-06
9.79609e-06
4.48774e-06
2.37291e-06
1.97228e-06
2.72008e-06
2.42061e-06
4.06279e-05
1.16808e-05
1.4591e-05
1.19864e-05
7.18486e-06
3.96776e-06
3.9804e-06
6.04959e-06
7.18608e-06
1.66453e-06
6.55858e-07
3.84008e-07
3.01165e-07
2.71857e-07
2.6862e-07
2.93721e-07
3.35155e-07
3.52799e-07
3.7069e-07
3.77843e-07
3.69296e-07
3.59707e-07
3.63127e-07
4.19161e-07
4.90379e-07
5.10418e-07
5.7968e-07
6.91823e-07
8.4239e-07
1.1099e-06
1.44285e-06
1.66504e-06
1.96576e-06
3.21148e-06
6.17486e-06
1.07816e-05
1.76519e-05
5.3985e-05
5.50722e-05
6.3251e-05
5.52094e-05
3.37653e-05
3.51822e-06
6.14515e-06
9.72157e-06
1.33e-05
4.71413e-06
2.45201e-06
2.00623e-06
2.72072e-06
2.37132e-06
3.87371e-05
7.6427e-06
1.47052e-05
1.79448e-05
1.20728e-05
5.32355e-06
4.02503e-06
4.83257e-06
8.9317e-06
4.31266e-06
1.33018e-06
5.64407e-07
3.7082e-07
2.94702e-07
2.71435e-07
2.74664e-07
3.15195e-07
3.58078e-07
3.73182e-07
3.81199e-07
3.89231e-07
3.71079e-07
3.59682e-07
3.68451e-07
4.42275e-07
5.24194e-07
5.70579e-07
6.73257e-07
8.15367e-07
1.03215e-06
1.41223e-06
1.68457e-06
1.85857e-06
2.15569e-06
3.67237e-06
6.75198e-06
1.19636e-05
2.40207e-05
5.35847e-05
5.31987e-05
6.04592e-05
5.49329e-05
3.65379e-05
4.50441e-06
9.19897e-06
1.44658e-05
1.71436e-05
4.93702e-06
2.51465e-06
2.0392e-06
2.72065e-06
2.31669e-06
3.77872e-05
7.02842e-06
8.63678e-06
1.7449e-05
2.10168e-05
1.19815e-05
4.51595e-06
4.43188e-06
6.97854e-06
9.77237e-06
3.08643e-06
1.03837e-06
5.21622e-07
3.55013e-07
2.91879e-07
2.74447e-07
2.84272e-07
3.39326e-07
3.81776e-07
3.88726e-07
3.93011e-07
3.92772e-07
3.74039e-07
3.62397e-07
3.79317e-07
4.75941e-07
5.76183e-07
6.60656e-07
8.07561e-07
9.97289e-07
1.31147e-06
1.75561e-06
1.88736e-06
2.00455e-06
2.35389e-06
4.22415e-06
7.61637e-06
1.38505e-05
3.33649e-05
5.11435e-05
5.19962e-05
5.6971e-05
5.52672e-05
3.83785e-05
5.30313e-06
1.23546e-05
1.78055e-05
3.55393e-05
5.16144e-06
2.58611e-06
2.05683e-06
2.70998e-06
2.29515e-06
3.6651e-05
7.17017e-06
7.20348e-06
9.18093e-06
2.22648e-05
2.36245e-05
6.53304e-06
4.41954e-06
5.23607e-06
9.9839e-06
8.31513e-06
2.29885e-06
9.03838e-07
4.88008e-07
3.32135e-07
2.87573e-07
2.81183e-07
2.97626e-07
3.59266e-07
3.93759e-07
3.98722e-07
3.99989e-07
3.94712e-07
3.7397e-07
3.69747e-07
3.95773e-07
5.33355e-07
6.46477e-07
7.93865e-07
9.94173e-07
1.2755e-06
1.74608e-06
2.07182e-06
2.04778e-06
2.14735e-06
2.55735e-06
4.72152e-06
8.34357e-06
1.68045e-05
3.83575e-05
5.04247e-05
5.18608e-05
5.57319e-05
5.61222e-05
4.14496e-05
6.29462e-06
1.67699e-05
2.95192e-05
4.09883e-05
5.33983e-06
2.64123e-06
2.06014e-06
2.70802e-06
2.27301e-06
3.34103e-05
7.15799e-06
7.18289e-06
7.32626e-06
1.23856e-05
3.14758e-05
1.46099e-05
5.22773e-06
4.8149e-06
7.28889e-06
1.03291e-05
5.48265e-06
1.91603e-06
7.9297e-07
4.34677e-07
3.18958e-07
2.89085e-07
2.8917e-07
3.14181e-07
3.76937e-07
3.99543e-07
4.03337e-07
4.02186e-07
3.9821e-07
3.74382e-07
3.83516e-07
4.21792e-07
6.21758e-07
7.71455e-07
9.74808e-07
1.23232e-06
1.59963e-06
2.31767e-06
2.37034e-06
2.18154e-06
2.28339e-06
2.78683e-06
5.28409e-06
9.39933e-06
2.10274e-05
4.13342e-05
5.10857e-05
5.18009e-05
5.58428e-05
6.13132e-05
4.58768e-05
6.60125e-06
1.87335e-05
3.87154e-05
2.77607e-05
5.54706e-06
2.69961e-06
2.06847e-06
2.70005e-06
2.2402e-06
3.25974e-05
7.16806e-06
6.99176e-06
7.27215e-06
8.05075e-06
2.41313e-05
3.64095e-05
8.2838e-06
4.96021e-06
5.53608e-06
9.70487e-06
9.92751e-06
4.13825e-06
1.59168e-06
6.58413e-07
3.84617e-07
3.16959e-07
2.89127e-07
2.99036e-07
3.37176e-07
3.86673e-07
4.04076e-07
4.07493e-07
4.05827e-07
4.00004e-07
3.84406e-07
4.06744e-07
4.64611e-07
7.18349e-07
9.39632e-07
1.21693e-06
1.52515e-06
2.03585e-06
2.7125e-06
2.55127e-06
2.30886e-06
2.43327e-06
3.02805e-06
5.8963e-06
1.07051e-05
2.50695e-05
4.29769e-05
5.3704e-05
5.34024e-05
6.03632e-05
7.21423e-05
5.0219e-05
6.36939e-06
2.28947e-05
4.021e-05
1.21115e-05
5.69138e-06
2.73405e-06
2.06473e-06
2.69674e-06
2.21497e-06
3.26915e-05
7.26587e-06
7.24075e-06
7.13474e-06
7.49206e-06
1.1888e-05
4.67136e-05
2.0043e-05
6.11409e-06
5.10221e-06
7.31159e-06
9.95112e-06
8.36076e-06
3.50085e-06
1.22164e-06
5.26436e-07
3.63253e-07
3.12125e-07
2.99757e-07
3.0889e-07
3.59735e-07
3.95827e-07
4.08177e-07
4.10563e-07
4.11304e-07
4.02257e-07
4.04907e-07
4.41904e-07
5.23817e-07
8.67135e-07
1.14332e-06
1.46337e-06
1.83962e-06
2.60917e-06
3.02205e-06
2.66851e-06
2.44455e-06
2.57607e-06
3.31129e-06
6.60621e-06
1.2197e-05
2.86967e-05
4.43339e-05
5.81865e-05
5.97949e-05
7.52101e-05
8.51556e-05
5.0163e-05
5.97006e-06
2.32909e-05
3.75798e-05
1.01753e-05
5.82669e-06
2.75175e-06
2.06462e-06
2.68933e-06
2.17199e-06
3.29318e-05
7.29274e-06
7.40497e-06
7.20659e-06
7.26269e-06
9.36089e-06
2.82845e-05
5.43686e-05
1.05628e-05
5.69214e-06
5.71459e-06
9.103e-06
1.00277e-05
7.193e-06
2.59238e-06
9.18453e-07
4.56733e-07
3.53137e-07
3.13063e-07
3.07348e-07
3.22235e-07
3.77666e-07
4.0386e-07
4.14643e-07
4.15273e-07
4.14616e-07
4.09871e-07
4.41304e-07
4.90924e-07
6.07198e-07
1.04505e-06
1.40133e-06
1.74747e-06
2.21855e-06
3.18007e-06
3.26914e-06
2.82446e-06
2.57855e-06
2.73858e-06
3.62777e-06
7.46471e-06
1.37459e-05
3.17065e-05
4.61909e-05
6.34308e-05
7.59558e-05
9.09059e-05
0.000106252
4.70423e-05
5.60609e-06
2.14834e-05
2.99748e-05
7.85783e-06
5.98622e-06
2.74284e-06
2.06063e-06
2.67686e-06
2.11888e-06
3.25989e-05
7.75323e-06
7.85661e-06
7.41307e-06
7.29503e-06
8.24831e-06
1.70346e-05
7.22737e-05
2.64367e-05
7.67009e-06
5.61423e-06
6.64512e-06
9.40742e-06
9.61978e-06
5.74031e-06
1.9689e-06
6.89366e-07
4.25008e-07
3.45493e-07
3.15636e-07
3.17933e-07
3.31955e-07
3.96111e-07
4.11517e-07
4.23909e-07
4.21484e-07
4.24867e-07
4.44984e-07
4.92095e-07
5.55034e-07
7.14135e-07
1.27181e-06
1.68584e-06
2.06799e-06
2.59884e-06
3.48138e-06
3.46019e-06
2.89649e-06
2.7155e-06
2.90785e-06
3.99628e-06
8.41113e-06
1.52952e-05
3.44924e-05
4.86053e-05
6.80462e-05
9.27908e-05
0.000110364
0.000137095
3.98761e-05
5.09778e-06
1.7961e-05
2.2954e-05
6.60609e-06
6.15287e-06
2.72989e-06
2.05857e-06
2.66913e-06
2.06518e-06
3.27711e-05
8.70433e-06
8.59987e-06
8.23133e-06
7.65297e-06
8.17354e-06
1.20892e-05
5.53296e-05
8.50972e-05
1.50648e-05
6.83215e-06
5.97052e-06
8.05806e-06
9.64095e-06
9.1191e-06
4.5592e-06
1.26678e-06
5.9402e-07
4.07737e-07
3.39251e-07
3.24661e-07
3.22472e-07
3.49326e-07
4.05974e-07
4.25898e-07
4.35034e-07
4.33558e-07
4.47023e-07
4.94717e-07
5.5467e-07
6.39454e-07
8.54717e-07
1.53043e-06
1.94699e-06
2.39496e-06
2.96841e-06
3.67607e-06
3.55989e-06
3.01073e-06
2.8556e-06
3.09275e-06
4.39469e-06
9.42848e-06
1.67358e-05
3.7558e-05
5.16755e-05
7.77062e-05
0.000112298
0.000183168
0.000161382
2.99862e-05
4.87389e-06
1.44138e-05
1.90206e-05
6.24778e-06
6.35758e-06
2.67657e-06
2.06052e-06
2.67097e-06
1.99883e-06
3.08652e-05
9.88257e-06
9.94426e-06
9.49341e-06
8.75392e-06
8.20142e-06
1.1228e-05
3.09868e-05
0.000131579
3.95736e-05
1.04417e-05
6.41603e-06
6.42579e-06
8.51794e-06
9.34244e-06
8.42969e-06
2.85432e-06
9.80279e-07
5.34503e-07
3.95171e-07
3.39677e-07
3.24382e-07
3.29352e-07
3.62626e-07
4.28205e-07
4.39166e-07
4.55281e-07
4.53817e-07
5.00018e-07
5.54869e-07
6.413e-07
7.40857e-07
1.03363e-06
1.7685e-06
2.19475e-06
2.72628e-06
3.35196e-06
3.86909e-06
3.54623e-06
3.11895e-06
3.00606e-06
3.27483e-06
4.84077e-06
1.03957e-05
1.81936e-05
4.06114e-05
5.40769e-05
8.80706e-05
0.000178042
0.00032111
0.000168631
2.12829e-05
4.7824e-06
1.13452e-05
1.69361e-05
6.55898e-06
6.52114e-06
2.61879e-06
2.04856e-06
2.67483e-06
1.9579e-06
2.99545e-05
1.14996e-05
1.16407e-05
1.15496e-05
1.06459e-05
9.01828e-06
1.0862e-05
2.43553e-05
0.000122963
0.000135362
2.27238e-05
8.57326e-06
6.53099e-06
6.99222e-06
8.90509e-06
9.28151e-06
6.78082e-06
2.06046e-06
7.76196e-07
5.08412e-07
3.95268e-07
3.36552e-07
3.28811e-07
3.32766e-07
3.82003e-07
4.46343e-07
4.64226e-07
4.80854e-07
4.96853e-07
5.76274e-07
6.42533e-07
7.38119e-07
8.58937e-07
1.25946e-06
1.98255e-06
2.40269e-06
3.06904e-06
3.73987e-06
3.91812e-06
3.57064e-06
3.25191e-06
3.15027e-06
3.46494e-06
5.30058e-06
1.13023e-05
1.97609e-05
4.36311e-05
5.83556e-05
0.000101416
0.000389917
0.000425153
0.000143595
1.53129e-05
4.78935e-06
8.96562e-06
1.42035e-05
6.81975e-06
6.7203e-06
2.54876e-06
2.03562e-06
2.67469e-06
1.91322e-06
2.72289e-05
1.38199e-05
1.40772e-05
1.42107e-05
1.3614e-05
1.14327e-05
1.09452e-05
1.96256e-05
6.65674e-05
0.000226013
6.13374e-05
1.56019e-05
7.67694e-06
6.71493e-06
7.12646e-06
8.73154e-06
8.57683e-06
4.9119e-06
1.39453e-06
7.1985e-07
4.96787e-07
3.96147e-07
3.36416e-07
3.30287e-07
3.43445e-07
4.07205e-07
4.73647e-07
5.0041e-07
5.20473e-07
5.79096e-07
6.53343e-07
7.34144e-07
8.42927e-07
9.95577e-07
1.52831e-06
2.17934e-06
2.58768e-06
3.36795e-06
4.06523e-06
3.98236e-06
3.63344e-06
3.38495e-06
3.29413e-06
3.64523e-06
5.7876e-06
1.21254e-05
2.15651e-05
4.58429e-05
6.19877e-05
0.000117325
0.000766384
0.000438856
9.42816e-05
1.20861e-05
5.42565e-06
7.74246e-06
1.08972e-05
7.04005e-06
6.88192e-06
2.4611e-06
2.00784e-06
2.68992e-06
1.90156e-06
2.61261e-05
1.71668e-05
1.76042e-05
1.83905e-05
1.78259e-05
1.53206e-05
1.20262e-05
1.8942e-05
4.69014e-05
0.000224389
0.000199062
3.56443e-05
1.2521e-05
7.21215e-06
6.38101e-06
7.07507e-06
8.59886e-06
7.61823e-06
3.18295e-06
1.1625e-06
6.70532e-07
4.8259e-07
3.85925e-07
3.37926e-07
3.38691e-07
3.60596e-07
4.35538e-07
5.11676e-07
5.58402e-07
5.82118e-07
6.86955e-07
7.54707e-07
8.44693e-07
9.55189e-07
1.1439e-06
1.8198e-06
2.34444e-06
2.73282e-06
3.59662e-06
4.21931e-06
4.10688e-06
3.69851e-06
3.52874e-06
3.42432e-06
3.83091e-06
6.27221e-06
1.2962e-05
2.34423e-05
4.82463e-05
6.5967e-05
0.000126166
0.000709832
0.000394452
5.53555e-05
1.10901e-05
6.62286e-06
7.38968e-06
8.77683e-06
7.30048e-06
7.0334e-06
2.35829e-06
2.00225e-06
2.71059e-06
1.90905e-06
2.43857e-05
2.24098e-05
2.28021e-05
2.47583e-05
2.49028e-05
2.20989e-05
1.6769e-05
1.71448e-05
4.49195e-05
0.000110152
0.000327301
8.95849e-05
2.54534e-05
1.0899e-05
6.8402e-06
6.02511e-06
7.28524e-06
7.80215e-06
6.36056e-06
2.30402e-06
1.0301e-06
6.54382e-07
4.81418e-07
3.88647e-07
3.41285e-07
3.56049e-07
3.87253e-07
4.70698e-07
5.68166e-07
6.4161e-07
6.81713e-07
8.19524e-07
8.89592e-07
9.62351e-07
1.07545e-06
1.30907e-06
2.09847e-06
2.49426e-06
2.86055e-06
3.68143e-06
4.29922e-06
3.99842e-06
3.77531e-06
3.66313e-06
3.54812e-06
4.00962e-06
6.78156e-06
1.38192e-05
2.53959e-05
5.03517e-05
6.91062e-05
0.000125993
0.000803
0.000222215
3.36941e-05
1.11289e-05
8.34552e-06
7.61899e-06
7.85827e-06
7.7285e-06
7.11454e-06
2.27147e-06
2.01584e-06
2.75887e-06
1.93314e-06
2.23278e-05
3.04478e-05
3.09938e-05
3.49156e-05
3.63188e-05
3.42946e-05
2.72397e-05
1.78076e-05
4.10426e-05
9.44133e-05
0.00026679
0.000236342
5.63657e-05
2.08911e-05
9.61466e-06
6.18116e-06
5.76685e-06
7.20144e-06
7.12852e-06
4.91611e-06
1.80678e-06
9.56419e-07
6.61556e-07
4.70243e-07
3.80629e-07
3.56512e-07
3.82789e-07
4.23327e-07
5.13047e-07
6.51095e-07
7.45034e-07
8.23242e-07
9.84183e-07
1.00477e-06
1.07791e-06
1.19416e-06
1.49473e-06
2.33544e-06
2.62625e-06
2.92128e-06
3.62342e-06
3.9456e-06
3.91353e-06
3.85447e-06
3.79043e-06
3.65887e-06
4.19795e-06
7.30454e-06
1.46676e-05
2.73883e-05
5.25674e-05
7.19911e-05
0.000138058
0.00118835
0.000103804
2.4746e-05
1.22465e-05
1.01983e-05
8.50737e-06
7.66681e-06
8.13614e-06
7.08109e-06
2.17417e-06
2.04438e-06
2.8239e-06
1.94438e-06
2.11528e-05
4.27526e-05
4.41839e-05
5.16049e-05
5.58746e-05
5.43345e-05
4.5259e-05
2.61292e-05
3.55798e-05
0.000102922
0.000166299
0.000352744
0.000123414
4.38677e-05
1.79286e-05
8.04758e-06
5.61897e-06
5.70569e-06
7.01494e-06
6.31633e-06
3.58022e-06
1.54889e-06
9.13517e-07
6.35471e-07
4.6658e-07
3.88397e-07
3.80936e-07
4.19706e-07
4.77046e-07
5.59339e-07
7.52857e-07
8.94312e-07
9.7971e-07
1.1273e-06
1.11458e-06
1.18902e-06
1.31873e-06
1.71466e-06
2.50948e-06
2.70784e-06
2.83989e-06
3.37543e-06
3.7682e-06
3.82812e-06
3.97957e-06
3.8883e-06
3.76586e-06
4.38931e-06
7.85948e-06
1.54592e-05
2.9339e-05
5.4418e-05
7.3973e-05
0.000153066
0.000342654
5.80493e-05
2.21607e-05
1.40724e-05
1.20645e-05
9.661e-06
8.00587e-06
8.47952e-06
7.06652e-06
2.1096e-06
2.0823e-06
2.91405e-06
1.96002e-06
1.92488e-05
6.16335e-05
6.52106e-05
7.97831e-05
8.91172e-05
9.25586e-05
7.79438e-05
4.31505e-05
3.44707e-05
0.000125232
0.000156511
0.000280301
0.000228698
9.39008e-05
3.73151e-05
1.41544e-05
6.95299e-06
5.39519e-06
5.45611e-06
6.2741e-06
5.72323e-06
2.82799e-06
1.35328e-06
9.15942e-07
6.4887e-07
4.75699e-07
3.93203e-07
4.19361e-07
4.6639e-07
5.42431e-07
6.40687e-07
8.78685e-07
1.08819e-06
1.1309e-06
1.28067e-06
1.2252e-06
1.31132e-06
1.46088e-06
1.97352e-06
2.6545e-06
2.70649e-06
2.6319e-06
2.98115e-06
3.73144e-06
3.81314e-06
4.05886e-06
3.99789e-06
3.86367e-06
4.59712e-06
8.38368e-06
1.62171e-05
3.10302e-05
5.62247e-05
7.34661e-05
9.95948e-05
9.36324e-05
4.21981e-05
2.27958e-05
1.6022e-05
1.37619e-05
1.07054e-05
8.44731e-06
8.80964e-06
6.96806e-06
2.02474e-06
2.12794e-06
3.01391e-06
1.98543e-06
1.83495e-05
9.10149e-05
9.82692e-05
0.000125894
0.000148063
0.000159857
0.000145161
0.000100044
3.40614e-05
8.12615e-05
0.000190239
0.000251676
0.000295876
0.000166403
7.94289e-05
3.01909e-05
1.13865e-05
6.16222e-06
5.15702e-06
5.55269e-06
5.91387e-06
4.84027e-06
2.22523e-06
1.33227e-06
8.93591e-07
6.4246e-07
4.84882e-07
4.23667e-07
4.73675e-07
5.35367e-07
6.26357e-07
7.44734e-07
1.00646e-06
1.29664e-06
1.32956e-06
1.44368e-06
1.34483e-06
1.43868e-06
1.60521e-06
2.23793e-06
2.75786e-06
2.48351e-06
2.46075e-06
2.72893e-06
3.63716e-06
3.75379e-06
4.17521e-06
4.08843e-06
3.96132e-06
4.81073e-06
8.87603e-06
1.69495e-05
3.26066e-05
5.73531e-05
7.13791e-05
7.2842e-05
5.15733e-05
3.73927e-05
2.53629e-05
1.78433e-05
1.52216e-05
1.15222e-05
9.00179e-06
8.89588e-06
6.86823e-06
1.97164e-06
2.16859e-06
3.13392e-06
1.98288e-06
1.68423e-05
0.000135278
0.000149448
0.000199158
0.000248743
0.000283765
0.000270109
0.000193811
5.80507e-05
4.77779e-05
0.000250856
0.000231674
0.000342754
0.000182121
0.000148873
6.77494e-05
2.37284e-05
9.97472e-06
5.56196e-06
5.01425e-06
5.54183e-06
5.26902e-06
4.01397e-06
2.03289e-06
1.34857e-06
9.2433e-07
6.51439e-07
4.75621e-07
4.73483e-07
5.43611e-07
6.3003e-07
7.27618e-07