/*--------------------------------*- C++ -*----------------------------------*\
| =========                 |                                                 |
| \\      /  F ield         | OpenFOAM: The Open Source CFD Toolbox           |
|  \\    /   O peration     | Version:  2212                                  |
|   \\  /    A nd           | Website:  www.openfoam.com                      |
|    \\/     M anipulation  |                                                 |
\*---------------------------------------------------------------------------*/
FoamFile
{
    version     2.0;
    format      ascii;
    arch        "LSB;label=32;scalar=64";
    class       volScalarField;
    location    "100";
    object      nut;
}
// * * * * * * * * * * * * * * * * * * * * * * * * * * * * * * * * * * * * * //

dimensions      [0 2 -1 0 0 0 0];

internalField   nonuniform List<scalar> 
165000
(
2.7249e-09
1.01074e-09
2.71329e-09
8.45071e-10
1.03473e-09
2.68714e-09
7.16121e-10
8.59178e-10
1.0578e-09
2.66603e-09
8.90579e-10
7.20216e-10
8.77751e-10
1.07418e-09
2.6549e-09
7.197e-10
8.40182e-10
7.13769e-10
8.95835e-10
1.08656e-09
2.64132e-09
2.60829e-12
7.30512e-10
7.1559e-10
7.28817e-10
8.93694e-10
1.10803e-09
2.64732e-09
1.55955e-12
1.42239e-11
7.50967e-10
7.37522e-10
7.39296e-10
8.89118e-10
1.13416e-09
2.66337e-09
6.57433e-13
1.46609e-12
3.67379e-11
7.97856e-10
7.43169e-10
7.49169e-10
8.87063e-10
1.15675e-09
2.70204e-09
3.82777e-14
6.20042e-13
1.77568e-12
6.43803e-11
8.38849e-10
7.62172e-10
7.3837e-10
8.66264e-10
1.17634e-09
2.75732e-09
1.94491e-13
3.70513e-14
5.72539e-13
2.43963e-12
9.21297e-11
8.96743e-10
7.40777e-10
7.28299e-10
8.38331e-10
1.17825e-09
2.79462e-09
1.05355e-12
1.83134e-13
3.22054e-14
5.31481e-13
3.74294e-12
1.20537e-10
8.78193e-10
6.92832e-10
6.99643e-10
8.05171e-10
1.12824e-09
2.83629e-09
8.22044e-12
1.68086e-12
2.42579e-13
3.68932e-14
5.2077e-13
5.39524e-12
1.49261e-10
9.18085e-10
6.26916e-10
6.7852e-10
7.6488e-10
1.07688e-09
2.87642e-09
6.89316e-11
7.43888e-11
7.49466e-12
6.7665e-13
5.0616e-14
5.07313e-13
7.90158e-12
1.78708e-10
9.38859e-10
6.0179e-10
6.50819e-10
7.17938e-10
1.05353e-09
2.89988e-09
9.74021e-08
4.83242e-09
4.72847e-10
3.8398e-11
2.40579e-12
1.29157e-13
5.79667e-13
1.11852e-11
2.10427e-10
9.16054e-10
5.71237e-10
6.05298e-10
6.66671e-10
1.06791e-09
2.95087e-09
1.10052e-07
1.01184e-07
1.81901e-08
1.56444e-09
1.30031e-10
9.24677e-12
3.15887e-13
6.52195e-13
1.41721e-11
2.50259e-10
9.78651e-10
5.32069e-10
5.68673e-10
6.10951e-10
1.08861e-09
3.01422e-09
3.05671e-09
1.0527e-07
1.10263e-07
3.07755e-08
3.7178e-09
4.34924e-10
2.4982e-11
9.31774e-13
7.84146e-13
1.84357e-11
2.96315e-10
9.93585e-10
5.18623e-10
5.30095e-10
5.67065e-10
1.09522e-09
3.09958e-09
4.35135e-10
1.10209e-09
8.58015e-08
1.31455e-07
4.67421e-08
9.19513e-09
8.21745e-10
5.4952e-11
2.14332e-12
8.94335e-13
2.53306e-11
3.44181e-10
9.9533e-10
4.81524e-10
4.89705e-10
5.31323e-10
1.09957e-09
3.19779e-09
4.4899e-10
4.38851e-10
4.60449e-10
3.358e-08
1.30063e-07
5.51801e-08
1.24112e-08
1.41421e-09
1.21226e-10
4.43328e-12
1.19333e-12
3.11095e-11
4.23349e-10
9.61617e-10
4.60829e-10
4.70684e-10
5.20059e-10
1.12592e-09
3.29671e-09
4.61878e-10
4.44069e-10
4.21596e-10
4.31637e-10
8.76996e-09
9.17585e-08
5.98965e-08
1.79003e-08
2.36647e-09
1.72018e-10
7.18681e-12
1.5475e-12
4.02344e-11
4.80247e-10
1.01631e-09
4.53128e-10
4.60347e-10
5.16004e-10
1.14503e-09
3.45823e-09
4.92016e-10
4.68711e-10
4.2842e-10
4.26704e-10
4.26162e-10
2.18772e-09
4.69306e-08
5.34803e-08
1.81509e-08
2.99942e-09
2.77557e-10
1.16995e-11
2.01309e-12
6.13188e-11
5.76906e-10
1.01713e-09
4.44621e-10
4.5759e-10
5.22063e-10
1.1429e-09
3.74049e-09
5.09135e-10
4.71898e-10
4.5581e-10
4.26081e-10
4.23948e-10
4.37521e-10
8.0919e-10
1.72473e-08
3.92346e-08
1.62884e-08
4.2471e-09
3.48945e-10
1.49564e-11
3.11334e-12
8.0913e-11
6.66494e-10
9.07404e-10
4.61032e-10
4.65962e-10
5.20812e-10
1.21894e-09
4.16316e-09
5.12253e-10
5.09782e-10
4.71433e-10
4.41781e-10
4.2581e-10
4.32906e-10
4.43629e-10
4.92293e-10
6.14861e-09
2.79313e-08
1.37073e-08
4.02949e-09
4.08406e-10
2.27233e-11
4.40533e-12
1.16361e-10
8.09163e-10
6.02899e-10
4.98787e-10
4.80654e-10
5.26214e-10
1.31809e-09
4.88459e-09
4.9751e-10
5.19697e-10
5.07368e-10
4.64363e-10
4.34225e-10
4.2063e-10
4.34596e-10
4.09404e-10
3.98951e-10
2.29124e-09
1.79643e-08
1.16335e-08
3.62708e-09
5.43087e-10
2.61291e-11
6.88153e-12
1.7752e-10
8.50627e-10
5.25997e-10
5.1288e-10
5.0159e-10
5.39237e-10
1.38397e-09
6.00298e-09
4.5932e-10
5.02673e-10
5.21449e-10
5.02104e-10
4.47319e-10
4.25251e-10
4.02475e-10
3.93987e-10
3.54272e-10
3.40357e-10
9.39711e-10
1.06977e-08
9.4939e-09
3.09908e-09
4.83997e-10
3.44188e-11
1.12128e-11
2.2676e-10
8.99755e-10
5.27815e-10
5.51365e-10
5.17102e-10
5.73819e-10
1.73609e-09
7.72754e-09
4.40149e-10
4.55609e-10
5.0171e-10
5.13996e-10
4.90382e-10
4.35188e-10
4.07874e-10
3.93602e-10
3.40087e-10
3.11447e-10
3.02801e-10
4.97024e-10
4.95727e-09
7.25397e-09
2.47671e-09
4.27884e-10
2.92016e-11
1.65188e-11
3.0901e-10
9.45774e-10
6.47517e-10
5.71966e-10
5.49446e-10
6.31306e-10
2.23894e-09
1.01878e-08
4.3819e-10
4.414e-10
4.53097e-10
5.04774e-10
5.08149e-10
4.65964e-10
4.14495e-10
3.74922e-10
3.39596e-10
3.04821e-10
2.91923e-10
3.1424e-10
4.06272e-10
2.31574e-09
5.18454e-09
1.90683e-09
3.64606e-10
2.5097e-11
2.72117e-11
4.13605e-10
9.97495e-10
3.3976e-09
5.90739e-10
5.90676e-10
7.03423e-10
3.03661e-09
1.36001e-08
4.42273e-10
4.39843e-10
4.41966e-10
4.64067e-10
5.09035e-10
5.01391e-10
4.39573e-10
3.79947e-10
3.48827e-10
3.02026e-10
2.84206e-10
3.11121e-10
3.54317e-10
4.00458e-10
1.2549e-09
3.57004e-09
1.44991e-09
3.11191e-10
2.51783e-11
4.08739e-11
4.64585e-10
1.26984e-09
2.49097e-09
5.98385e-10
6.23002e-10
7.988e-10
4.24246e-09
1.77709e-08
4.55127e-10
4.43487e-10
4.39177e-10
4.37245e-10
4.61432e-10
5.03043e-10
4.80701e-10
3.93657e-10
3.41103e-10
3.07623e-10
2.71724e-10
2.95417e-10
3.36596e-10
4.14849e-10
4.47898e-10
8.2103e-10
2.48735e-09
1.13635e-09
2.63246e-10
2.45667e-11
7.76776e-11
5.40585e-10
1.88914e-09
7.13147e-10
6.09381e-10
6.76735e-10
9.5296e-10
5.8363e-09
2.23324e-08
4.81495e-10
4.49752e-10
4.434e-10
4.33521e-10
4.35424e-10
4.6339e-10
4.82065e-10
4.51499e-10
3.51924e-10
3.07015e-10
2.80274e-10
2.69543e-10
3.21753e-10
3.9472e-10
4.91547e-10
4.96888e-10
6.5604e-10
1.81904e-09
8.71321e-10
2.60633e-10
2.48965e-11
1.10178e-10
6.46361e-10
1.6906e-09
7.58083e-10
6.176e-10
7.31064e-10
1.16498e-09
8.00262e-09
2.68984e-08
5.09407e-10
4.74515e-10
4.56332e-10
4.41497e-10
4.30864e-10
4.29889e-10
4.43561e-10
4.53297e-10
3.99872e-10
3.17142e-10
2.84647e-10
2.73267e-10
2.72637e-10
3.48142e-10
4.96874e-10
5.6358e-10
5.82339e-10
6.45347e-10
1.31379e-09
6.78664e-10
2.41841e-10
2.23235e-11
1.41871e-10
7.86153e-10
1.56311e-09
7.42322e-10
6.33472e-10
7.83151e-10
1.44444e-09
1.04154e-08
3.10067e-08
5.20755e-10
4.83944e-10
4.68402e-10
4.59386e-10
4.40412e-10
4.2562e-10
4.22449e-10
4.31663e-10
4.2276e-10
3.4894e-10
2.97101e-10
2.75478e-10
2.70561e-10
2.8684e-10
4.16331e-10
5.57793e-10
6.44043e-10
6.54854e-10
6.68872e-10
1.17461e-09
6.39289e-10
2.09996e-10
2.47563e-11
1.71569e-10
9.00537e-10
1.45062e-09
7.682e-10
6.58421e-10
8.43479e-10
1.7867e-09
1.29001e-08
3.4932e-08
5.36233e-10
4.94993e-10
4.7636e-10
4.66072e-10
4.52091e-10
4.37791e-10
4.20718e-10
4.15737e-10
4.28109e-10
3.83671e-10
3.16761e-10
2.912e-10
2.75064e-10
2.75657e-10
3.18201e-10
5.03885e-10
6.67561e-10
7.54775e-10
7.59585e-10
7.58284e-10
1.12143e-09
6.37259e-10
1.96303e-10
2.33161e-11
1.97953e-10
9.92366e-10
1.38267e-09
7.85315e-10
6.74967e-10
8.84552e-10
2.15327e-09
1.514e-08
3.77139e-08
5.70977e-10
5.12218e-10
4.83465e-10
4.66164e-10
4.55415e-10
4.45161e-10
4.28242e-10
4.129e-10
4.04564e-10
3.9217e-10
3.60473e-10
3.032e-10
2.86832e-10
2.75627e-10
2.83162e-10
4.23563e-10
5.88535e-10
7.94796e-10
8.80307e-10
1.06603e-09
1.10559e-09
1.17175e-09
6.43348e-10
1.88431e-10
2.51217e-11
2.22674e-10
1.10606e-09
1.31516e-09
8.02612e-10
6.9773e-10
9.23356e-10
2.53665e-09
1.6967e-08
4.02686e-08
6.1046e-10
5.34642e-10
5.02953e-10
4.73488e-10
4.58169e-10
4.47294e-10
4.34323e-10
4.18058e-10
3.99991e-10
3.98322e-10
3.72532e-10
3.43342e-10
2.95359e-10
2.86693e-10
2.80206e-10
3.05356e-10
5.22443e-10
7.30457e-10
9.9807e-10
1.3204e-09
1.47789e-09
1.44494e-09
1.35029e-09
6.71426e-10
1.67864e-10
2.60044e-11
2.88864e-10
1.17295e-09
1.28541e-09
8.41933e-10
7.28954e-10
9.99721e-10
2.91127e-09
1.85994e-08
4.23065e-08
6.67562e-10
5.53116e-10
5.20123e-10
4.95628e-10
4.65725e-10
4.48688e-10
4.38439e-10
4.21994e-10
4.01723e-10
3.88658e-10
3.78449e-10
3.6065e-10
3.28442e-10
2.9274e-10
2.86497e-10
2.94879e-10
3.47302e-10
6.73075e-10
8.8413e-10
1.34072e-09
1.54852e-09
1.59317e-09
1.60912e-09
1.48745e-09
6.95362e-10
1.71924e-10
2.8456e-11
3.51317e-10
1.16084e-09
1.29257e-09
9.11573e-10
7.52424e-10
1.03873e-09
3.29693e-09
1.99496e-08
4.48222e-08
7.79614e-10
5.7486e-10
5.30332e-10
4.99187e-10
4.82804e-10
4.56712e-10
4.37745e-10
4.2661e-10
4.05105e-10
3.93356e-10
3.80642e-10
3.61293e-10
3.54612e-10
3.17339e-10
2.93464e-10
2.95519e-10
3.20333e-10
4.15852e-10
8.34126e-10
1.04814e-09
1.57293e-09
1.66083e-09
1.66451e-09
1.72752e-09
1.62179e-09
7.80495e-10
1.63627e-10
3.44527e-11
4.23203e-10
1.14403e-09
1.31415e-09
9.52965e-10
7.85727e-10
1.10015e-09
3.68988e-09
2.14553e-08
4.6668e-08
1.06261e-09
6.39125e-10
5.36574e-10
4.98572e-10
4.83135e-10
4.64553e-10
4.39998e-10
4.27431e-10
4.08815e-10
3.9857e-10
3.88218e-10
3.73644e-10
3.53761e-10
3.56954e-10
3.18819e-10
3.03915e-10
3.15738e-10
3.57157e-10
5.27529e-10
9.87784e-10
1.25275e-09
1.66727e-09
1.77917e-09
1.82143e-09
1.79173e-09
1.8217e-09
9.10417e-10
1.71353e-10
3.79674e-11
4.53528e-10
1.12265e-09
1.3119e-09
1.02803e-09
8.08297e-10
1.1354e-09
4.0222e-09
2.2475e-08
4.89199e-08
1.6893e-09
7.32416e-10
5.88542e-10
4.93692e-10
4.8195e-10
4.61812e-10
4.45823e-10
4.26164e-10
4.14483e-10
4.01086e-10
3.94835e-10
3.82086e-10
3.64952e-10
3.57935e-10
3.5604e-10
3.24064e-10
3.23101e-10
3.46023e-10
3.98374e-10
7.28086e-10
1.158e-09
1.49801e-09
1.56208e-09
1.89893e-09
1.87023e-09
1.85799e-09
2.01296e-09
1.02126e-09
1.84038e-10
4.52627e-11
5.17817e-10
1.13075e-09
1.29651e-09
1.07776e-09
8.38594e-10
1.18835e-09
4.33449e-09
1.90762e-08
5.14215e-08
1.90732e-09
1.12735e-09
6.6945e-10
5.16857e-10
4.71824e-10
4.61601e-10
4.44589e-10
4.2969e-10
4.14675e-10
4.07711e-10
3.98871e-10
3.90309e-10
3.76756e-10
3.59652e-10
3.75669e-10
3.64397e-10
3.37461e-10
3.46415e-10
3.70087e-10
4.54146e-10
9.31276e-10
1.35591e-09
1.75114e-09
1.63586e-09
1.90874e-09
1.95072e-09
1.93374e-09
2.11743e-09
1.26554e-09
2.13576e-10
4.91498e-11
5.29732e-10
1.14637e-09
1.3076e-09
1.15015e-09
8.57563e-10
1.22586e-09
4.54009e-09
1.89169e-08
5.18125e-08
2.00703e-09
1.98735e-09
8.62109e-10
6.15525e-10
4.67808e-10
4.53037e-10
4.4364e-10
4.2782e-10
4.14043e-10
4.09727e-10
4.03793e-10
3.94292e-10
3.85648e-10
3.72611e-10
3.6566e-10
3.92768e-10
3.76435e-10
3.58182e-10
3.67811e-10
3.97679e-10
5.28905e-10
1.15452e-09
1.52502e-09
1.73479e-09
1.70079e-09
2.09027e-09
2.03438e-09
2.09297e-09
2.34041e-09
1.59465e-09
2.93319e-10
5.86287e-11
5.49119e-10
1.19455e-09
1.34841e-09
1.1893e-09
8.84015e-10
1.27091e-09
4.71112e-09
1.80014e-08
4.97703e-08
2.0186e-09
2.13568e-09
1.6683e-09
7.26196e-10
5.38389e-10
4.31864e-10
4.36788e-10
4.25914e-10
4.10999e-10
4.08298e-10
4.0656e-10
3.99732e-10
3.87248e-10
3.7818e-10
3.71096e-10
3.87925e-10
4.09941e-10
3.91989e-10
3.77689e-10
3.88724e-10
4.30064e-10
6.38479e-10
1.39824e-09
1.65572e-09
1.7391e-09
1.76506e-09
2.11764e-09
2.14668e-09
2.42866e-09
3.23491e-09
2.32624e-09
4.55916e-10
6.41226e-11
5.38134e-10
1.20175e-09
1.39798e-09
1.23801e-09
8.99256e-10
1.30161e-09
4.81572e-09
1.64005e-08
4.38928e-08
2.05136e-09
2.13464e-09
2.35716e-09
1.20083e-09
6.56157e-10
4.58099e-10
4.18006e-10
4.14554e-10
4.08264e-10
4.05118e-10
4.04416e-10
4.00714e-10
3.92005e-10
3.8124e-10
3.76854e-10
3.79023e-10
4.23297e-10
4.37369e-10
4.03538e-10
3.93942e-10
4.0879e-10
4.84819e-10
7.87821e-10
1.56202e-09
1.68551e-09
1.76297e-09
1.95639e-09
2.24846e-09
2.63219e-09
3.48733e-09
4.28103e-09
3.24977e-09
6.24108e-10
7.89486e-11
5.52366e-10
1.21017e-09
1.39086e-09
1.23608e-09
9.21092e-10
1.33137e-09
4.85052e-09
1.5254e-08
3.85831e-08
1.885e-09
2.26369e-09
2.35939e-09
2.3983e-09
8.42546e-10
5.82254e-10
4.1355e-10
4.03566e-10
4.04768e-10
4.02534e-10
4.01122e-10
3.98427e-10
3.96367e-10
3.87254e-10
3.81754e-10
3.83362e-10
3.96325e-10
4.50519e-10
4.52218e-10
4.21922e-10
4.08741e-10
4.39958e-10
5.69852e-10
9.84664e-10
1.6819e-09
1.68228e-09
1.81811e-09
2.05621e-09
2.77765e-09
3.55301e-09
4.68304e-09
5.1131e-09
3.95512e-09
8.90293e-10
9.12234e-11
5.65028e-10
1.18967e-09
1.41204e-09
1.25701e-09
9.28884e-10
1.34405e-09
4.79451e-09
1.4316e-08
3.50354e-08
1.84547e-09
2.10035e-09
2.35185e-09
2.64361e-09
1.59139e-09
7.09658e-10
4.622e-10
3.92287e-10
3.96422e-10
3.93779e-10
3.99126e-10
3.96832e-10
3.94121e-10
3.96552e-10
3.85216e-10
3.88026e-10
3.95052e-10
4.2049e-10
4.75823e-10
4.6224e-10
4.25815e-10
4.3709e-10
4.89181e-10
6.90285e-10
1.21257e-09
1.72565e-09
1.62865e-09
1.9616e-09
2.26097e-09
3.60236e-09
4.33502e-09
5.43723e-09
5.7386e-09
4.48581e-09
1.18578e-09
1.21421e-10
5.71183e-10
1.21428e-09
1.4388e-09
1.27179e-09
9.45652e-10
1.35251e-09
4.68341e-09
1.35788e-08
3.22214e-08
1.90418e-09
1.96345e-09
2.22331e-09
2.48451e-09
2.82644e-09
1.07186e-09
6.23191e-10
4.11989e-10
3.83846e-10
3.8308e-10
3.92117e-10
3.9488e-10
3.93642e-10
3.949e-10
4.0285e-10
3.90428e-10
3.98405e-10
4.12091e-10
4.53617e-10
4.87668e-10
4.70947e-10
4.396e-10
4.76108e-10
5.69488e-10
8.31799e-10
1.45426e-09
1.66095e-09
1.63852e-09
2.06288e-09
2.52974e-09
4.38032e-09
4.89173e-09
6.04037e-09
6.10462e-09
5.52795e-09
1.6934e-09
1.57589e-10
5.85183e-10
1.19787e-09
1.49414e-09
1.31006e-09
9.52743e-10
1.35553e-09
4.64286e-09
1.28963e-08
3.0523e-08
2.27881e-09
1.9233e-09
2.09482e-09
2.2562e-09
2.91174e-09
2.26911e-09
8.12422e-10
4.99909e-10
3.88131e-10
3.77408e-10
3.80107e-10
3.89539e-10
3.93222e-10
3.95552e-10
4.03989e-10
4.07532e-10
4.0195e-10
4.13761e-10
4.23674e-10
4.8286e-10
4.96099e-10
4.80161e-10
4.78924e-10
5.45066e-10
6.85307e-10
1.0365e-09
1.67663e-09
1.62673e-09
1.65403e-09
2.2377e-09
2.85841e-09
4.82838e-09
5.02527e-09
6.98693e-09
7.46115e-09
7.46458e-09
2.34599e-09
2.10564e-10
6.17208e-10
1.23732e-09
1.5584e-09
1.32357e-09
9.68568e-10
1.35338e-09
4.55422e-09
1.23065e-08
3.08639e-08
2.94496e-09
2.31258e-09
2.0807e-09
2.22294e-09
2.46555e-09
3.09429e-09
1.43068e-09
6.92878e-10
4.44803e-10
3.77306e-10
3.74023e-10
3.78628e-10
3.8931e-10
3.9862e-10
4.05953e-10
4.19596e-10
4.14519e-10
4.15582e-10
4.20508e-10
4.3435e-10
5.04241e-10
5.0498e-10
4.90338e-10
5.43764e-10
6.52095e-10
8.67428e-10
1.30495e-09
1.8572e-09
1.59507e-09
1.75596e-09
2.36032e-09
3.45547e-09
4.85341e-09
6.60925e-09
8.81693e-09
1.00621e-08
9.40749e-09
3.03276e-09
2.66844e-10
7.23161e-10
1.29526e-09
1.83958e-09
1.36202e-09
9.76267e-10
1.35348e-09
4.49735e-09
1.17843e-08
3.02356e-08
3.73261e-09
2.86258e-09
2.29965e-09
2.20229e-09
2.3135e-09
2.95552e-09
2.85466e-09
1.077e-09
5.82821e-10
4.16459e-10
3.72759e-10
3.7025e-10
3.79976e-10
3.97118e-10
4.06234e-10
4.24422e-10
4.34563e-10
4.2801e-10
4.23746e-10
4.23969e-10
4.49372e-10
5.16016e-10
5.22054e-10
5.45199e-10
6.44861e-10
8.19698e-10
1.12933e-09
1.69169e-09
1.87336e-09
1.6693e-09
1.89371e-09
2.53909e-09
4.13953e-09
4.98172e-09
9.50018e-09
1.16982e-08
1.1883e-08
1.06347e-08
3.63835e-09
3.30765e-10
9.37929e-10
1.59293e-09
2.08375e-09
1.38622e-09
9.93942e-10
1.35236e-09
4.41506e-09
1.15194e-08
3.16319e-08
4.37552e-09
3.69672e-09
2.95449e-09
2.52871e-09
2.32435e-09
2.65998e-09
3.55144e-09
2.02822e-09
8.97749e-10
5.1917e-10
4.01898e-10
3.69243e-10
3.70059e-10
3.8219e-10
4.13537e-10
4.27264e-10
4.55786e-10
4.57258e-10
4.4328e-10
4.28034e-10
4.26512e-10
4.76256e-10
5.3913e-10
5.66943e-10
6.56747e-10
8.21729e-10
1.0853e-09
1.50775e-09
2.14623e-09
1.96143e-09
1.72423e-09
2.09185e-09
2.852e-09
4.40378e-09
5.72612e-09
1.14025e-08
1.28622e-08
1.2844e-08
1.10811e-08
4.16388e-09
3.99058e-10
1.15548e-09
1.67839e-09
3.20541e-09
1.44259e-09
1.0056e-09
1.35739e-09
4.37821e-09
1.12063e-08
3.24419e-08
4.43864e-09
4.61755e-09
4.01416e-09
3.16286e-09
2.47998e-09
2.56401e-09
3.29651e-09
3.96328e-09
1.58716e-09
7.65978e-10
4.84367e-10
3.91975e-10
3.69137e-10
3.66521e-10
3.9023e-10
4.35398e-10
4.56091e-10
4.77387e-10
4.77243e-10
4.48548e-10
4.30699e-10
4.33752e-10
5.02565e-10
5.87658e-10
6.52275e-10
8.21621e-10
1.07698e-09
1.4719e-09
2.05391e-09
2.6138e-09
2.03967e-09
1.85221e-09
2.2727e-09
3.24929e-09
4.77189e-09
6.74996e-09
1.26892e-08
1.23559e-08
1.27108e-08
1.1129e-08
4.52516e-09
4.5716e-10
1.43744e-09
2.3867e-09
4.05946e-09
1.48708e-09
1.02551e-09
1.36865e-09
4.32573e-09
1.10752e-08
3.11511e-08
3.4501e-09
4.88949e-09
5.34835e-09
3.95431e-09
2.91919e-09
2.57118e-09
2.98213e-09
4.58212e-09
2.98314e-09
1.36561e-09
6.72053e-10
4.67891e-10
3.8331e-10
3.62891e-10
3.64759e-10
4.08546e-10
4.62589e-10
4.82278e-10
4.91132e-10
4.89394e-10
4.50075e-10
4.36112e-10
4.48683e-10
5.54329e-10
6.82583e-10
8.13111e-10
1.05696e-09
1.42396e-09
2.01027e-09
2.85643e-09
2.97993e-09
2.15208e-09
1.98194e-09
2.49991e-09
3.40664e-09
5.1593e-09
8.27457e-09
1.22138e-08
1.18149e-08
1.22553e-08
1.10626e-08
4.76623e-09
5.70578e-10
1.9277e-09
3.06854e-09
4.69999e-09
1.51673e-09
1.03872e-09
1.38101e-09
4.28105e-09
1.10006e-08
3.07996e-08
3.20977e-09
3.5828e-09
5.50662e-09
5.89288e-09
4.66511e-09
2.73014e-09
2.83624e-09
3.91345e-09
5.1249e-09
2.60497e-09
1.15234e-09
6.25109e-10
4.43889e-10
3.75088e-10
3.60409e-10
3.68599e-10
4.34342e-10
4.92907e-10
5.02206e-10
5.06229e-10
4.94166e-10
4.58761e-10
4.51241e-10
4.79638e-10
6.54604e-10
8.45571e-10
1.05527e-09
1.43753e-09
1.94771e-09
2.80067e-09
3.77254e-09
3.18388e-09
2.21283e-09
2.11437e-09
2.75851e-09
3.70917e-09
5.76386e-09
1.01061e-08
1.14923e-08
1.13541e-08
1.16116e-08
1.11207e-08
4.88949e-09
6.65343e-10
2.34249e-09
3.31226e-09
8.27052e-09
1.55679e-09
1.05734e-09
1.38455e-09
4.22416e-09
1.1069e-08
3.00987e-08
3.1694e-09
3.06766e-09
3.67088e-09
6.24874e-09
6.53778e-09
3.3262e-09
2.77153e-09
3.23353e-09
5.46187e-09
4.9096e-09
2.18001e-09
1.03053e-09
5.83245e-10
4.1106e-10
3.63355e-10
3.64536e-10
3.80264e-10
4.57885e-10
5.08733e-10
5.1534e-10
5.15389e-10
4.984e-10
4.6987e-10
4.80565e-10
5.41162e-10
8.3334e-10
1.09636e-09
1.47209e-09
2.01763e-09
2.80017e-09
4.06665e-09
4.69563e-09
3.05403e-09
2.3015e-09
2.22135e-09
2.97728e-09
3.91513e-09
6.70002e-09
1.05661e-08
1.10208e-08
1.10428e-08
1.13242e-08
1.11433e-08
5.13338e-09
7.85073e-10
2.95727e-09
5.04287e-09
8.94126e-09
1.58036e-09
1.0703e-09
1.37765e-09
4.19101e-09
1.1069e-08
2.74582e-08
3.06567e-09
2.94988e-09
3.02619e-09
4.48688e-09
7.93416e-09
5.01978e-09
3.04531e-09
3.05503e-09
4.39179e-09
5.77398e-09
3.93344e-09
1.94195e-09
9.12889e-10
5.21346e-10
3.88263e-10
3.64175e-10
3.69241e-10
3.98689e-10
4.79899e-10
5.16834e-10
5.2256e-10
5.20428e-10
5.05438e-10
4.9552e-10
5.33763e-10
6.50245e-10
1.12766e-09
1.52977e-09
2.11447e-09
2.9013e-09
3.99009e-09
5.89865e-09
5.43874e-09
3.00438e-09
2.34154e-09
2.34443e-09
3.1997e-09
4.27277e-09
7.98018e-09
1.05562e-08
1.05964e-08
1.04114e-08
1.117e-08
1.15467e-08
5.52576e-09
8.25635e-10
3.17916e-09
6.45354e-09
6.23055e-09
1.62597e-09
1.08546e-09
1.37587e-09
4.15602e-09
1.10387e-08
2.6721e-08
3.0297e-09
2.7502e-09
2.86216e-09
3.16567e-09
6.86366e-09
8.91465e-09
3.92786e-09
3.0612e-09
3.49202e-09
5.73849e-09
5.83444e-09
3.35023e-09
1.68044e-09
7.61877e-10
4.59746e-10
3.83705e-10
3.64448e-10
3.78962e-10
4.26117e-10
4.92347e-10
5.23829e-10
5.30504e-10
5.30592e-10
5.29677e-10
5.46856e-10
6.32533e-10
8.40732e-10
1.5262e-09
2.17422e-09
3.12748e-09
4.18054e-09
5.61887e-09
7.2179e-09
5.5582e-09
2.89871e-09
2.40894e-09
2.43979e-09
3.45396e-09
4.70018e-09
9.04212e-09
1.02794e-08
1.04418e-08
1.00218e-08
1.1576e-08
1.25033e-08
5.87263e-09
7.96939e-10
3.83842e-09
6.71258e-09
2.53768e-09
1.64319e-09
1.09525e-09
1.36505e-09
4.13785e-09
1.10174e-08
2.67794e-08
3.02513e-09
2.79201e-09
2.63978e-09
2.86893e-09
4.23985e-09
1.05228e-08
6.07342e-09
3.40349e-09
3.22572e-09
4.58093e-09
5.93146e-09
5.39492e-09
3.17825e-09
1.3159e-09
6.13149e-10
4.31968e-10
3.77635e-10
3.75693e-10
3.89014e-10
4.54209e-10
5.04515e-10
5.3343e-10
5.45466e-10
5.51256e-10
5.75857e-10
6.28613e-10
8.04193e-10
1.11513e-09
2.15521e-09
3.11646e-09
4.36169e-09
5.58612e-09
7.6198e-09
8.07934e-09
5.48224e-09
2.93298e-09
2.44637e-09
2.56486e-09
3.7261e-09
5.18837e-09
9.7929e-09
9.98672e-09
1.05704e-08
1.05046e-08
1.287e-08
1.37551e-08
5.72483e-09
7.5276e-10
3.93704e-09
6.35421e-09
2.34268e-09
1.66648e-09
1.10317e-09
1.36213e-09
4.16538e-09
1.09363e-08
2.70862e-08
2.94844e-09
2.79863e-09
2.63225e-09
2.57846e-09
3.35375e-09
7.94616e-09
1.17572e-08
4.71666e-09
3.37397e-09
3.62173e-09
5.75986e-09
6.11691e-09
5.26835e-09
2.48882e-09
1.00733e-09
5.32795e-10
4.19542e-10
3.7865e-10
3.82551e-10
4.05031e-10
4.77198e-10
5.15961e-10
5.51918e-10
5.689e-10
5.87459e-10
6.55523e-10
8.00604e-10
1.04722e-09
1.50283e-09
2.98615e-09
4.41867e-09
5.79777e-09
7.06713e-09
9.37718e-09
8.61431e-09
5.36347e-09
2.91305e-09
2.51373e-09
2.69116e-09
4.07899e-09
5.6483e-09
1.02173e-08
9.83056e-09
1.08155e-08
1.23598e-08
1.46226e-08
1.6118e-08
5.29267e-09
7.26911e-10
3.71963e-09
5.24902e-09
1.98259e-09
1.69036e-09
1.09269e-09
1.36059e-09
4.22527e-09
1.07532e-08
2.68505e-08
3.01706e-09
2.85561e-09
2.65516e-09
2.46416e-09
2.90019e-09
5.3171e-09
1.41093e-08
7.72507e-09
4.00204e-09
3.40601e-09
4.24381e-09
5.94118e-09
6.20614e-09
4.58691e-09
2.00777e-09
7.6674e-10
4.97132e-10
4.1247e-10
3.83379e-10
3.9295e-10
4.16862e-10
5.01614e-10
5.31867e-10
5.82573e-10
6.0983e-10
6.67678e-10
8.18285e-10
1.05005e-09
1.3718e-09
2.0676e-09
4.07513e-09
5.97828e-09
7.17622e-09
8.38781e-09
1.03074e-08
8.83016e-09
4.99148e-09
2.94925e-09
2.60312e-09
2.85426e-09
4.43007e-09
6.07439e-09
1.04807e-08
9.78657e-09
1.0927e-08
1.39593e-08
1.67496e-08
1.95343e-08
4.46775e-09
6.91025e-10
3.23133e-09
4.32564e-09
1.70992e-09
1.71298e-09
1.08975e-09
1.3623e-09
4.30112e-09
1.06436e-08
2.74294e-08
3.24842e-09
3.009e-09
2.82163e-09
2.53214e-09
2.62166e-09
3.86862e-09
1.29107e-08
1.57578e-08
6.27456e-09
3.77039e-09
3.64183e-09
5.13839e-09
6.13681e-09
6.02837e-09
4.1222e-09
1.32929e-09
6.68184e-10
4.78636e-10
4.09518e-10
3.96531e-10
3.98947e-10
4.39343e-10
5.199e-10
5.67752e-10
6.36054e-10
6.82362e-10
8.03543e-10
1.05284e-09
1.44474e-09
1.87106e-09
2.85977e-09
5.50955e-09
7.22902e-09
8.46515e-09
9.61642e-09
1.08818e-08
8.74864e-09
4.74543e-09
2.97842e-09
2.70945e-09
2.99868e-09
4.82243e-09
6.40762e-09
1.08061e-08
9.86525e-09
1.16736e-08
1.62555e-08
2.51469e-08
2.0967e-08
3.38654e-09
6.79123e-10
2.66974e-09
3.57908e-09
1.62767e-09
1.74782e-09
1.07071e-09
1.37885e-09
4.37321e-09
1.03977e-08
2.62059e-08
3.54283e-09
3.32293e-09
3.11515e-09
2.75771e-09
2.53311e-09
3.43022e-09
8.33976e-09
2.08206e-08
1.12518e-08
5.01376e-09
3.62638e-09
3.91564e-09
5.4213e-09
5.94909e-09
6.01811e-09
2.73962e-09
1.06643e-09
6.08992e-10
4.71031e-10
4.15782e-10
4.00702e-10
4.11162e-10
4.62767e-10
5.66822e-10
6.21387e-10
7.30556e-10
8.09944e-10
1.05025e-09
1.40921e-09
1.98123e-09
2.57422e-09
3.91874e-09
6.8411e-09
8.38627e-09
9.72634e-09
1.08675e-08
1.13998e-08
8.27317e-09
4.56216e-09
3.03734e-09
2.78779e-09
3.18772e-09
5.14279e-09
6.72682e-09
1.10917e-08
9.80015e-09
1.23223e-08
2.41426e-08
3.61026e-08
2.02134e-08
2.46248e-09
6.6113e-10
2.09722e-09
3.11893e-09
1.62171e-09
1.77577e-09
1.05447e-09
1.38996e-09
4.49496e-09
1.0302e-08
2.58128e-08
3.96144e-09
3.69733e-09
3.62235e-09
3.16048e-09
2.69436e-09
3.03851e-09
6.48263e-09
2.16691e-08
2.18253e-08
8.57929e-09
4.39207e-09
3.71604e-09
4.25539e-09
5.61313e-09
5.9992e-09
5.2756e-09
2.12923e-09
8.64316e-10
5.89767e-10
4.78452e-10
4.18965e-10
4.1143e-10
4.24843e-10
5.06917e-10
6.26052e-10
7.14e-10
8.79086e-10
1.04983e-09
1.50789e-09
1.98465e-09
2.70667e-09
3.35994e-09
4.95454e-09
7.83875e-09
9.30017e-09
1.09836e-08
1.21074e-08
1.13551e-08
7.82116e-09
4.41805e-09
3.10201e-09
2.88265e-09
3.35232e-09
5.44223e-09
7.05405e-09
1.13656e-08
1.00239e-08
1.32452e-08
4.23434e-08
4.30722e-08
1.65924e-08
1.79554e-09
6.50998e-10
1.6533e-09
2.57922e-09
1.63951e-09
1.81795e-09
1.03381e-09
1.39647e-09
4.55143e-09
1.00328e-08
2.3759e-08
4.59078e-09
4.26905e-09
4.20125e-09
3.82164e-09
3.21197e-09
2.96203e-09
4.82686e-09
1.49882e-08
2.96117e-08
1.56336e-08
6.77201e-09
4.06261e-09
3.84505e-09
4.40541e-09
5.51095e-09
5.62189e-09
4.31218e-09
1.48691e-09
8.15861e-10
5.89254e-10
4.88942e-10
4.25392e-10
4.21723e-10
4.5393e-10
5.71825e-10
7.26608e-10
8.74316e-10
1.11004e-09
1.48377e-09
2.11811e-09
2.68255e-09
3.54956e-09
4.23325e-09
6.1032e-09
8.71068e-09
1.00898e-08
1.21351e-08
1.3209e-08
1.13133e-08
7.38302e-09
4.35736e-09
3.1675e-09
2.94697e-09
3.54408e-09
5.6635e-09
7.45184e-09
1.14369e-08
1.01659e-08
1.46019e-08
6.18362e-08
4.26112e-08
1.10491e-08
1.40729e-09
7.19112e-10
1.40709e-09
2.01292e-09
1.63513e-09
1.85222e-09
1.00644e-09
1.4019e-09
4.62252e-09
9.87501e-09
2.30958e-08
5.52272e-09
5.10249e-09
5.14733e-09
4.67284e-09
4.02153e-09
3.1414e-09
4.3354e-09
1.06535e-08
3.22665e-08
2.95281e-08
1.15637e-08
5.83483e-09
3.91547e-09
3.76013e-09
4.41417e-09
5.43585e-09
5.2678e-09
2.98694e-09
1.26676e-09
7.74873e-10
5.9038e-10
4.88081e-10
4.366e-10
4.49839e-10
5.0616e-10
6.66461e-10
8.85284e-10
1.14708e-09
1.46028e-09
2.1282e-09
2.88323e-09
3.58177e-09
4.2718e-09
4.9854e-09
7.2759e-09
9.43295e-09
1.075e-08
1.31599e-08
1.36974e-08
1.14079e-08
6.95094e-09
4.32065e-09
3.22981e-09
3.0196e-09
3.72373e-09
5.89402e-09
7.85363e-09
1.15781e-08
1.03121e-08
1.52339e-08
5.617e-08
3.6164e-08
6.69362e-09
1.2739e-09
8.55258e-10
1.30981e-09
1.69961e-09
1.6528e-09
1.89108e-09
9.7467e-10
1.4147e-09
4.62158e-09
9.86455e-09
2.20081e-08
6.94098e-09
6.37147e-09
6.62994e-09
6.09713e-09
5.3285e-09
4.11015e-09
3.9768e-09
8.37771e-09
2.19796e-08
4.04674e-08
1.95329e-08
9.42522e-09
5.27211e-09
3.76458e-09
3.67859e-09
4.54714e-09
4.98299e-09
4.82531e-09
2.27765e-09
1.13266e-09
7.79411e-10
6.10697e-10
5.0263e-10
4.58866e-10
5.01603e-10
5.91716e-10
8.02481e-10
1.15381e-09
1.62664e-09
2.08039e-09
3.11282e-09
3.79952e-09
4.36029e-09
4.94642e-09
5.71188e-09
8.36351e-09
1.01246e-08
1.15201e-08
1.37982e-08
1.39735e-08
1.07595e-08
6.59568e-09
4.3111e-09
3.27955e-09
3.08357e-09
3.92334e-09
6.10229e-09
8.27057e-09
1.16492e-08
1.03944e-08
1.5202e-08
7.24847e-08
2.22943e-08
4.10439e-09
1.26079e-09
1.05974e-09
1.30842e-09
1.57192e-09
1.71542e-09
1.91043e-09
9.48213e-10
1.44956e-09
4.75385e-09
1.00662e-08
2.05463e-08
9.16745e-09
8.35977e-09
8.9765e-09
8.43931e-09
7.54291e-09
6.21473e-09
4.12945e-09
7.05243e-09
1.91021e-08
3.92576e-08
3.57323e-08
1.51027e-08
8.3006e-09
4.80834e-09
3.49832e-09
3.5869e-09
4.52327e-09
4.62966e-09
4.10839e-09
1.83177e-09
1.06034e-09
8.18022e-10
6.15586e-10
5.1622e-10
5.03262e-10
5.87963e-10
7.28328e-10
1.02541e-09
1.6604e-09
2.26751e-09
3.08859e-09
4.31596e-09
4.48209e-09
4.95591e-09
5.49137e-09
6.4445e-09
9.27257e-09
1.08732e-08
1.22193e-08
1.38912e-08
1.2814e-08
1.0137e-08
6.27681e-09
4.32025e-09
3.32874e-09
3.15441e-09
4.14234e-09
6.30462e-09
8.68415e-09
1.17291e-08
1.04597e-08
1.62694e-08
6.47497e-08
1.19849e-08
2.98197e-09
1.37569e-09
1.2856e-09
1.41928e-09
1.54785e-09
1.78305e-09
1.9117e-09
9.18772e-10
1.46894e-09
4.7894e-09
9.99274e-09
1.96876e-08
1.26779e-08
1.1585e-08
1.28332e-08
1.25848e-08
1.12237e-08
9.3124e-09
5.9513e-09
6.67608e-09
1.616e-08
3.14061e-08
4.74029e-08
2.40177e-08
1.30334e-08
7.48897e-09
4.18477e-09
3.34854e-09
3.57843e-09
4.46792e-09
4.2632e-09
3.22197e-09
1.58995e-09
1.0384e-09
8.22951e-10
6.31119e-10
5.60543e-10
5.86903e-10
7.3994e-10
9.56431e-10
1.35955e-09
2.30343e-09
3.3356e-09
4.32834e-09
5.10555e-09
5.06178e-09
5.45557e-09
6.02357e-09
7.24597e-09
1.00037e-08
1.15912e-08
1.24343e-08
1.32027e-08
1.20841e-08
9.46036e-09
6.0997e-09
4.30854e-09
3.37603e-09
3.23263e-09
4.37586e-09
6.46346e-09
9.05518e-09
1.17596e-08
1.05412e-08
1.72393e-08
3.09018e-08
7.1868e-09
2.62796e-09
1.58671e-09
1.52934e-09
1.58726e-09
1.60853e-09
1.84719e-09
1.91436e-09
9.02288e-10
1.48691e-09
4.96876e-09
1.00619e-08
1.82433e-08
1.81662e-08
1.68056e-08
1.93454e-08
1.96584e-08
1.86011e-08
1.47677e-08
9.01631e-09
7.35163e-09
1.7124e-08
2.91514e-08
4.34328e-08
3.78724e-08
2.02973e-08
1.18766e-08
6.3217e-09
3.76223e-09
3.30523e-09
3.49524e-09
4.03058e-09
4.14447e-09
2.64679e-09
1.40475e-09
1.08834e-09
8.9505e-10
6.86312e-10
6.24362e-10
7.32075e-10
9.35563e-10
1.31939e-09
1.87573e-09
3.27824e-09
4.65597e-09
5.35556e-09
5.83996e-09
5.57784e-09
6.05908e-09
6.61167e-09
8.15949e-09
1.06289e-08
1.21867e-08
1.21645e-08
1.17323e-08
1.16957e-08
8.97616e-09
5.92282e-09
4.33503e-09
3.41905e-09
3.30823e-09
4.61238e-09
6.61744e-09
9.36457e-09
1.18925e-08
1.03882e-08
1.1781e-08
1.13899e-08
5.2983e-09
2.69792e-09
1.83684e-09
1.777e-09
1.75484e-09
1.68931e-09
1.9196e-09
1.90599e-09
8.8079e-10
1.53183e-09
5.0775e-09
1.01076e-08
1.76105e-08
2.66464e-08
2.50078e-08
3.00042e-08
3.20525e-08
3.20442e-08
2.64752e-08
1.89752e-08
7.44665e-09
1.23654e-08
2.58712e-08
4.1473e-08
4.55485e-08
3.17679e-08
1.82347e-08
1.06341e-08
5.37985e-09
3.50349e-09
3.20824e-09
3.56708e-09
3.8718e-09
3.78911e-09
2.1784e-09
1.4121e-09
1.13757e-09
9.37446e-10
7.59628e-10
7.57407e-10
9.53742e-10
1.25976e-09
1.79682e-09
2.62537e-09
4.21182e-09
5.98108e-09
6.35019e-09
6.55146e-09
6.11416e-09
6.59089e-09
7.22285e-09
9.1245e-09
1.14091e-08
1.17671e-08
1.19649e-08
1.07352e-08
1.11315e-08
8.40356e-09
5.92115e-09
4.3553e-09
3.46411e-09
3.39879e-09
4.81473e-09
6.76839e-09
9.61176e-09
1.19453e-08
1.00704e-08
8.83184e-09
6.431e-09
4.66477e-09
3.03636e-09
2.11233e-09
2.02466e-09
1.90743e-09
1.80487e-09
1.95351e-09
1.89658e-09
8.68953e-10
1.55605e-09
5.18674e-09
1.0113e-08
1.65282e-08
3.93049e-08
3.75587e-08
4.67408e-08
5.25794e-08
5.61092e-08
4.85928e-08
3.44941e-08
1.19564e-08
9.48601e-09
2.87014e-08
3.91045e-08
5.10901e-08
3.50358e-08
2.88805e-08
1.72418e-08
9.13639e-09
4.93934e-09
3.26549e-09
3.15957e-09
3.56333e-09
3.59244e-09
3.42767e-09
2.04529e-09
1.50455e-09
1.30444e-09
1.02592e-09
8.374e-10
9.82404e-10
1.28702e-09
1.79471e-09
2.52593e-09
3.33675e-09
5.06443e-09
7.11115e-09
7.42713e-09
7.35274e-09
6.65149e-09