/*--------------------------------*- C++ -*----------------------------------*\
| =========                 |                                                 |
| \\      /  F ield         | OpenFOAM: The Open Source CFD Toolbox           |
|  \\    /   O peration     | Version:  2212                                  |
|   \\  /    A nd           | Website:  www.openfoam.com                      |
|    \\/     M anipulation  |                                                 |
\*---------------------------------------------------------------------------*/
FoamFile
{
    version     2.0;
    format      ascii;
    arch        "LSB;label=32;scalar=64";
    class       volScalarField;
    location    "100";
    object      omega;
}
// * * * * * * * * * * * * * * * * * * * * * * * * * * * * * * * * * * * * * //

dimensions      [0 0 -1 0 0 0 0];

internalField   nonuniform List<scalar> 
165000
(
1790.34
826.734
1791.6
901.588
834.475
1785.13
1253.23
915.64
837.749
1812.32
1180.92
1248.04
916.288
841.68
1823.22
5069.07
1148.4
1178.92
915.208
850.081
1845.38
10090.4
4471.31
1082.11
1107.19
919.462
863.303
1855.94
12215.2
9037.06
3393.95
1143.53
1073.33
923.35
871.938
1868.94
13120
10990.7
7511.19
2632.2
1240.59
1057.87
922.529
881.907
1876.47
13052.5
11818.6
9259.58
6396.8
2190.43
1331.1
1067.08
928.45
884.53
1883.64
12456.5
11759.2
9970.28
8016.39
5570
1986.59
1374.76
1058.45
930.516
885.157
1886.33
11182.5
11218.7
9915.99
8646.73
7131.13
4981.82
1848.46
1395.2
1063.26
929.352
885.34
1881.01
9443.14
10057.5
9453.77
8598.5
7707.5
6487.08
4510.93
1769.06
1429.43
1066.29
929.034
882.901
1878.41
7266.15
8489.81
8456.19
8187.56
7656.47
7010.36
5964.63
4111.25
1747.25
1486.06
1069.86
931.127
876.815
1886.86
4933.1
6550.79
7078.7
7292.88
7293.69
6955.66
6459.05
5565.49
3812.67
1728.44
1530.24
1094.7
931.231
867.985
1881.84
5619.51
4508.51
5299.97
6068.16
6471.22
6620.84
6409.32
6028.78
5225.22
3592.92
1666.92
1547.23
1106.93
943.933
860.648
1884.64
3346.55
3253.25
3490.67
4469.02
5312.25
5857.9
6113.92
5979.88
5695.26
4979.87
3313.43
1720.5
1552.85
1134.05
952.081
858.514
1883.25
929.101
1196.5
1557.86
2260.81
3616.28
4759.33
5402.43
5698.93
5646.85
5420.95
4737.3
3108.55
1722.7
1563.05
1148.31
962.192
856.957
1882
941.209
986.748
1005.65
1148.36
1636.9
2914.71
4274.53
5002.13
5403.92
5376.77
5204.38
4558.12
2979.89
1705
1542.46
1157.88
960.636
855.158
1877.98
940.694
974.356
1012.62
1041.95
1155.52
1451.22
2319.38
3825.28
4741.35
5147.19
5165.57
5026.53
4392.27
2811.23
1757.11
1546.25
1158.92
965.915
851.583
1863.07
833.144
980.655
979.284
1062.56
1163.76
1314.29
1502.61
2048.52
3494.24
4465
4966.53
4990.34
4878.1
4250.35
2678.96
1765.47
1544.37
1167.27
958.517
846.567
1836.42
798.357
926.334
979.258
1042.74
1100.28
1381.06
1459.51
1486.37
1913.15
3177.89
4315.91
4808.38
4862.04
4769.77
4125.93
2568.59
1713.38
1521.43
1163.43
964.039
838.425
1820.49
793.099
821.478
966.976
998.285
1098.87
1189.7
1373.35
1411.73
1468.58
1756.44
2968.28
4131.21
4708.77
4750.3
4673.31
4040.93
2507.02
1559.73
1491.14
1158.87
956.984
826.179
1783.97
753.596
801.245
829.812
993.207
1009.84
1135.45
1270.22
1282.99
1336.36
1383.08
1615.25
2667.23
4020.61
4608.39
4671.43
4601.6
3914.57
2406.6
1484.14
1515.16
1156.1
959.394
803.711
1749.91
711.795
774.114
796.024
860.596
1002.75
1036.48
1202.68
1257.26
1269.92
1283.35
1306.27
1462.28
2431.98
3897.02
4555.54
4619.52
4557.41
3823.42
2277.56
1469.48
1527.78
1176.86
953.423
771.913
1699.28
671.143
717.636
772.763
801.148
893.57
1015.43
1058.93
1242.65
1223.25
1241.95
1274.18
1322.42
1463.01
2230.44
3803.9
4515.02
4577.98
4518.95
3780.96
2152.38
1483.65
1550.32
1175.31
939.702
724.507
1648.19
660.836
677.094
714.775
768.682
802.258
938.705
1025.96
1100.29
1224.74
1203.13
1210.16
1334.4
1394.54
1519.09
2120.54
3720.46
4462.22
4446.92
4495.41
3700.8
1928.7
3465.99
1672.51
1168.77
926.686
667.943
1591.13
660.597
664.468
678.975
713.64
770.799
808.991
971.119
1030.83
1162.75
1183.37
1214.89
1249.5
1415.46
1490.71
1536.36
2073.24
3589.75
4325.5
4395.56
4446.17
3589.01
2036.78
4160.48
1757.13
1185.49
913.954
601.572
1548.12
668.655
667.266
664.402
677.813
710.677
769.642
833.219
997.565
1044.05
1188.49
1153.74
1248.73
1277.8
1417.51
1496.41
1528.49
2031.52
3501.56
4265.76
4383.32
4352.45
3301.2
2405.6
2705.26
1821.72
1170.95
866.904
537.278
1528.02
681.503
681.664
670.62
674.951
687.764
720.785
790.55
853.607
1017
1059.9
1189.01
1132.05
1261.8
1299.95
1371.33
1437.32
1456.41
1936.48
3412.38
4120.73
4284.03
4349
3002.23
2601.7
2133.07
1847.76
1162.51
807.532
478.649
1519.62
689.34
687.929
685.751
679.137
681.056
692.394
735.23
798.505
891.123
1027.97
1092.92
1144.97
1146.57
1259.07
1308.72
1300.91
1274.47
1325.95
1863.15
3376.1
4152.58
4345.75
4329.35
2886.64
2628.44
2078.5
1860.64
1162.3
741.117
432.618
1525.55
692.052
689.432
690.039
691.144
684.409
688.297
700.549
758.145
810.208
933.642
1035.28
1118.16
1133.05
1153.06
1261.81
1266.45
1195.45
1210.59
1320.27
1714.22
3211.88
4108.35
4370.9
4232.03
2870.73
2649.05
2108.66
1881.62
1145.53
681.616
399.131
1516.29
704.378
689.849
684.721
692.995
693.717
693.348
692.709
710.039
771.528
828.224
976.214
1047.72
1121.8
1116.95
1176.39
1248.36
1175.58
1137.34
1259.58
1407.03
1799.94
3246.86
4247.19
4474.36
4211.19
2905.57
2670.36
2142.78
1890.01
1152.62
639.662
375.822
1533.09
742.166
698.504
685.06
685.105
693.398
700.533
698.497
700.696
725.17
785.455
854.701
1009.51
1065.13
1119.37
1103.06
1193.56
1197.43
1122.11
1224.19
1443.06
1604.07
1914.15
3253.31
4296.19
4559.47
4161.77
2917.33
2670.18
2185.98
1906.41
1167.33
609.292
360.145
1536.75
804.426
717.732
697.529
685.826
684.046
695.214
706.337
706.18
709.878
738.749
803.263
891.959
1035.1
1072.05
1104.05
1089.46
1200.59
1122.49
1107.69
1275.18
1533.65
1699.96
1957.96
3265.87
4350.94
4642.65
4035.4
2937.43
2568.11
2212.56
1914.76
1146.28
590.803
346.785
1544.81
900.395
754.809
708.071
697.634
686.012
682.777
697.202
715.187
713.083
720.347
762.361
821.908
936.913
1049.99
1079.47
1084.66
1087.77
1168.51
1053.21
1213.7
1281
1508.52
1726.08
1976.21
3270.87
4505.93
4727.34
3973.34
2919.36
2447.04
2241
1932.3
1178.03
575.506
334.054
1524.21
1039.06
809.469
734.43
700.999
694.285
685.993
682.602
705.138
721.331
721.31
734.069
783.972
853.001
981.52
1056.68
1078.53
1073.07
1083.38
1087.92
1009.78
1239
1264.42
1544.92
1742.75
1963.67
3281.99
4674.98
4820.62
3960.46
2861.52
2391.25
2283.62
1953.37
1190.35
561.15
319.162
1508.41
1214.54
942.173
766.792
709.3
694.517
690.483
684.841
687.78
712.57
727.109
733.031
751.526
814.314
887.469
1000.34
1055.17
1071.97
1053.08
1080.08
1021.7
981.416
1219.7
1414.64
1646.13
1771.71
1949.29
3307.26
4804.37
4985.49
3926.03
2741.36
2408.69
2327.35
1980.21
1229.18
554.13
301.269
1470.91
1667.44
1012.16
880.634
723.488
694.958
687.356
686.2
684.958
694.244
716.344
734.666
744.592
780.947
845.827
929.036
1006.12
1055.87
1053.36
1027.44
1023.43
969.633
976.325
1299.73
1604.47
1726.54
1763.75
1945.35
3313.33
4971.34
5134.9
3903.33
2668.14
2503.12
2368.97
2010.09
1246.82
543.193
277.052
1443.38
1779.46
1295.8
988.754
790.168
698.284
685.59
680.708
684.397
686.596
703.102
722.147
741.566
761.65
819.52
881.079
949.3
1012.97
1052.34
1041.1
988.299
971.664
923.032
997.027
1398.2
1666
1711.86
1757.41
1967.46
3136.76
5098.24
5354.33
3844.44
2598.97
2637.28
2428.78
2038.92
1273.09
538.197
258.764
1417.73
1611.66
1834.08
1032.46
927.91
734.641
683.124
680.163
678.486
681.194
689.075
711.147
732.307
753.433
787.9
856.879
915.836
953.576
1014.35
1039.69
1018.07
942.991
921.052
888.26
1100.1
1497.67
1635.17
1674.19
1805.03
2098.71
3215.61
5242.35
5580.8
3738.46
2542.75
2789.26
2500.07
2067.58
1285.71
534.448
248.77
1381.52
1571.93
1751.67
1531.49
990.707
865.126
704.555
680.322
679.996
674.066
680.902
692.32
726.09
745.662
776.033
818.454
896.677
926.869
952.518
1011.47
1020.53
981.887
892.045
867.307
871.683
1235.47
1535.79
1602.1
1704.36
2067.39
2527.75
3426.03
5384.51
5828.15
3559.05
2544.5
2856.43
2575.22
2092.62
1303.7
533.887
242.904
1380.71
1569.69
1639.19
1880.06
1128.89
969.416
757.582
696.927
681.102
677.191
677.717
685.954
703.871
740.175
767.459
802.752
852.132
918.524
931.675
959.608
1008.82
994.074
930.449
841.367
833.27
892.058
1364.49
1552.75
1672.45
1900.13
2577.14
2939.54
3623.61
5572.33
6055.06
3371.98
2533.11
2961.13
2678.68
2120.65
1315.68
535.614
238.766
1379.62
1559.94
1601.87
1739.82
1722.91
1004.89
903.759
721.948
695.625
684.061
678.167
684.005
696.58
718.283
763.589
793.196
831.378
873.613
924.059
930.964
956.514
993.78
959.597
861.19
798.175
813.727
921.132
1451.81
1566.59
1921.75
2245.82
2853.53
3200.32
3747.4
5739.54
6235.07
3179.54
2549.14
2952.43
2760.58
2154.18
1335.75
547.808
234.034
1378.85
1568.08
1574.23
1617.64
1860.71
1298.71
974.798
791.056
711.11
699.054
684.483
684.869
695.19
713.141
741.673
788.591
821.499
849.901
877.732
924.612
930.176
961.78
959.152
914.158
790.127
755.096
814.327
991.496
1500
1627.04
2236.65
2418.79
2891.61
3307.65
3864.01
5917.63
6402.41
3024.86
2560.22
2944.22
2829.63
2188.86
1354.9
565.355
229.018
1371.46
1660.31
1566.05
1557.4
1725.54
1808.15
1032.95
916.649
744.75
710.459
702.355
686.953
696.188
713.279
733.345
770.069
816.065
840.306
852.798
882.965
925.65
929.817
957.895
921.026
846.943
743.183
721.221
860.592
1055.09
1554.21
1719.48
2391.15
2432.25
2869.93
3479.16
4059.88
6158.04
6571.26
2955.35
2615.25
2915.54
2876.26
2222.67
1373.66
575.726
226.67
1360.9
1857.1
1642.67
1567.41
1604.62
1820.56
1486.68
973.549
811.522
735.856
710.27
705.068
695.578
713.81
733.076
756.697
796.35
835.436
843.273
852.288
883.155
922.47
926.949
919.41
861.09
779.033
692.889
697.591
900.623
1148.51
1598.16
1859.92
2391.07
2406.85
2995.03
3892.15
4331.55
6438.27
6747.65
3013.26
2734.72
2877.41
2944.92
2258.2
1396.13
590.178
224.567
1313.27
2231.28
1833.12
1622.76
1550.64
1658.01
1851.76
1090.7
920.13
767.462
735.795
713.962
706.84
713.049
733.092
755.956
774.722
819.923
839.019
844.54
851.69
883.823
915.933
912.118
860.394
788.467
706.368
650.117
684.614
957.039
1221.44
1669.27
2035.68
2351.22
2471.82
3397.02
4380.68
4619.31
6740.98
6964.12
3180.89
2921.25
2852.35
3003.44
2292.88
1415.67
601.23
221.391
1296.23
2706.65
2262.05
1817.47
1599.24
1580.32
1816.11
1627
1002.68
819.17
764.449
736.422
717.558
711.514
731.105
755.828
771.216
786.305
826.163
838.269
842.736
853.352
883.571
898.3
861.814
789.058
707.292
638.463
606.84
729.186
986.54
1304.8
1727.65
2137.01
2358.33
2939.54
3937.69
4771.17
4827.63
7007.58
7170.38
3454.74
3208.65
2879.42
3063.46
2327.4
1436.46
613.527
219.395
1264.97
2889.74
2766.85
2265.36
1741.27
1550.07
1622.42
1919.12
1197.28
944.953
793.047
767.087
736.634
720.924
730.176
754.6
769.845
775.482
791.129
825.3
837.122
842.055
849.731
870.325
856.551
782.498
707.296
637.048
587.942
572.778
758.042
1035.01
1356.22
1819.95
2201.21
2440.29
3649.34
4323.05
4952.39
4934.23
7257.44
7426.33
3827.87
3591.25
3056.12
3110.88
2359.69
1453
621.277
216.005
1252.33
2631.61
3159.91
2986.02
2271.63
1599.92
1552.41
1835.15
1813.17
1048.75
856.236
792.804
768.327
736.466
732.893
752.687
769.768
773.528
776.497
791.719
823.314
835.172
837.176
834.043
834.464
782.52
705.532
642.371
572.315
540.382
552.012
816.331
1061.31
1413.07
1900.37
2259.39
2615.11
4254.39
4457.15
4976.16
4960.87
7461.68
7695.81
4275.06
4073.23
3276.29
3170.05
2391.02
1465.85
628.963
214.11
1243.53
2215.21
3007.51
3355.22
3053.07
1823.64
1565.44
1620.51
1949.25
1445.68
974.054
839.825
792.536
768.834
747.98
753.002
771.505
774.073
773.791
776.165
795.334
824.482
824.746
821.182
797.857
767.956
701.724
636.974
572.605
513.438
494.406
565.304
863.618
1087.67
1469
1982.01
2318.84
2902.95
4387.21
4502.68
4933.32
4965.63
7666
7894.47
4772
4714.24
3647.58
3255.05
2420.92
1476.6
635.511
210.597
1226.87
2189.7
2410.63
3168.73
3566.47
2568.33
1654.11
1562.59
1783.22
1906.84
1184.83
901.095
834.449
799.779
778.162
761.487
771.224
781.242
774.539
774.037
776.35
794.817
815.325
803.112
790.841
727.068
681.413
626.053
561.769
512.03
468.272
465.365
592.787
905.876
1113.28
1531.32
2053.39
2402.99
3301.46
4450.24
4579.52
4906.38
4969.77
7849.18
7970.52
5274.12
5375.63
4297.11
3315.44
2445.86
1485.57
641.544
207.35
1217.7
2262.31
2348.2
2501.01
3563.09
3613.54
1964.11
1594.62
1619.3
1827.93
1693.65
1054.51
877.065
836.712
807.996
791.437
771.344
782.683
784.62
774
773.707
776.092
791.958
795.901
769.401
731.339
640.02
589.658
539.278
492.742
455.51
429.364
441.222
670.519
933.022
1151.26
1585.85
2131.11
2508.12
3630.24
4575.4
4696.34
4921.51
5036.39
8074.54
8017.88
5670.74
5853.66
4584.17
3378.88
2467.75
1495.4
646.15
205.35
1216.77
2334.89
2434.98
2420.95
2760.41
3967.12
2910.46
1716.65
1576.06
1659.66
1788.91
1393.86
986.65
868.637
833.76
821.501
793.808
783.146
788.036
785.451
773.058
771.847
772.798
787.851
755.534
718.513
648.666
551.372
504.296
461.019
424.748
400.899
392.915
435.825
726.121
975.166
1188.7
1651.43
2199.82
2634.95
3915.63
4821.06
4975.4
4999.34
5310.03
8302.36
7995.36
5892.6
5999.09
4455.57
3411.53
2487.07
1503.39
649.672
202.94
1219.92
2365.93
2542.27
2540.79
2543.14
3515.81
4084.23
2108.98
1620.35
1585.35
1691.19
1701.54
1235.21
947.18
864.199
836.585
826.049
793.327
789.093
791.275
785.368
771.389
768.124
764.856
755.184
702.938
643.04
552.626
470.677
432.169
389.108
364.823
362.324
375.802
459.01
796.513
1010.1
1241.11
1707.11
2277.59
2772.53
4180.86
5143.19
5328.62
5214.5
5769.88
8551.37
7992.32
5964.63
5990.24
4772.65
3463.62
2496.27
1512.57
651.724
201.043
1220.77
2401.83
2593.38
2702.78
2611.45
2803.86
4439.26
3300.11
1796.42
1581.73
1596.09
1677.69
1549.75
1101.5
928.371
858.578
840.926
826.524
797.879
794.033
792.003
784.57
765.192
752.683
746.122
698.536
644.127
549.5
469.738
402.343
366.864
335.505
329.32
342.42
374.046
486.755
833.468
1053.01
1291.02
1772.95
2350.83
2930.36
4439.29
5504.67
5692.25
5843.84
6190.82
8762.36
7930.89
5915.85
5914.16
4343.46
3496.41
2494.41
1515.73
645.639
198.603
1215.82
2473.42
2645.93
2737.8
2816.67
2791.17
3559.51
4624.28
2239.47
1687.07
1577.86
1580.42
1639.34
1365.33
1041.61
911.77
857.239
841.72
826.787
803.419
795.582
791.424
782.734
751.277
729.958
705.778
625.259
551.214
468.786
404.037
349.966
317.139
301.404
313.925
339.128
379.501
526.609
885.172
1089.45
1348.03
1830.04
2433.64
3103.21
4698.7
5864.83
6145.38
6216.81
6592.11
8888.2
7712.21
5775.69
5710.55
3963.4
3541.39
2510.17
1514.51
633.535
197.047
1214.09
2569.79
2751.29
2791.95
2960.45
2844.06
3203.74
5122.43
3422.19
1916.55
1648.33
1565.84
1583.43
1550.04
1251.45
980.638
899.088
854.92
837.621
823.3
809.091
796.318
789.673
773.721
727.649
691.15
636.335
543.801
468.64
404.603
345.392
312.09
281.994
288.172
309.835
337.756
391.861
580.287
920.741
1117.06
1400.11
1898.65
2517.98
3291.05
4966.53
6227.32
6647.23
6589.05
7018.18
8925.33
7377.14
5558.39
5306.5
3863.39
3591.9
2505.07
1511.1
620.566
194.03
1194.75
2679.56
2858.05
2917.22
3022.34
3117.69
3124.93
4285.58
5400.33
2400.93
1812.06
1639.43
1568.21
1571
1512.7
1106.01
952.98
889.006
851.873
828.416
818.752
808.306
795.11
780.87
750.148
683.958
635.379
556.316
469.889
383.925
341.76
298.877
277.777
269.33
282.92
308.681
337.819
406.908
634.448
958.764
1141.47
1465.54
1955.13
2611.85
3475.64
5238.13
6656.57
6908.32
7283.92
7696.95
8854.53
7176.74
5398.96
5314.38
3838.49
3637.43
2499.81
1494.38
610.758
192.238
1177.8
2789.46
2992.62
3047.5
3174.34
3237.69
3273.27
3715.55
6319.67
3517.08
2082.6
1769.26
1641.06
1571.2
1570.4
1400.72
1041.86
919.218
877.684
838.949
816.958
809.532
801.027
783.604
755.45
706.751
623.198
560.306
476.095
393.744
323.688
287.798
263.766
258.511
261.708
280.299
308.438
339.399
428.642
683.656
989.704
1174.7
1518.57
2021.42
2704.64
3661.44
5517.97
7147.26
7374.59
8894.38
8342.56
8642.9
7233.68
5409.65
5430.09
4044.49
3672.3
2483.53
1473.83
595.073
190.05
1160.45
2902.88
3148.4
3188.42
3368.44
3347.1
3574.78
3757
5674.55
6202.07
2648.68
1951.99
1757.51
1643.14
1586.48
1547.12
1285.32
967.704
898.047
862.056
826.139
803.295
799.191
783.268
753.581
712.949
650.176
546.993
473.269
382.172
323.752
272.704
255.64
254.203
252.916
258.35
279.419
308.892
345.054
456.536
736.05
1015.56
1202
1581.17
2076.78
2801.36
3838.88
5821.66
7656.79
9208.43
9870.7
8654.23
8528.29
7356.93
5422.86
5506.89
4159.63
3696.64
2465.4
1457.69
587.659
190.696
1146.04
3010.37
3297.5
3382.5
3562.34
3559.41
3695.15
4065.92
4441.32
7632.54
3923.43
2303.87
1889.66
1746.38
1617.66
1584.4
1525.61
1139.07
937.872
882.319
843.078
810.212
790.838
783.184
756.604
712.115
651.86
572.344
468.877
390.288
308.455
273.673
237.474
235.181
250.411
250.192
256.465
277.539
307.762
352.006
492.134
776.834
1039.98
1236.94
1633.03
2140.97
2893.93
4008.33
6097.63
8034.9
12393.8
10299.1
8532.99
8588.23
7544.93
5502.47
5413.61
4305.49
3715.49
2445.34
1432.23
581.916
192.563
1131.2
3108.4
3450.13
3572.82
3814.8
3809.63
3828.29
4369.14
4402.46
6954.24
6741.43
3082.43
2145.9
1841.96
1697.02
1602.81
1581.88
1446.19
1065.62
917.7
865.345
817.422
790.699
773.995
752.916
712.416
653.51
577.979
486.804
398.634
322.786
261.758
235.831
223.604
229.45
250.114
248.537
254.217
273.302
308.037
360.003
532.088
816.717
1060.22
1268.68
1684.39
2199.18
2984.9
4167.03
6397.06
8281.93
12637.2
10907.3
8269.89
8705.64
7743.7
5641.8
5164.03
4417.04
3719.24
2419.58
1415.31
586.507
193.527
1108.03
3228.62
3578.78
3734.31
4084.34
4147.3
4079.9
4311.22
5361.79
5011.56
8088
4586.35
2700.56
2067.29
1816.99
1637.89
1602.16
1565.76
1318.16
1011.58
909.45
839.585
788.309
773.227
743.758
709.824
654.457
586.554
492.426
394.44
327.686
263.274
234.133
220.708
217.419
229.183
250.908
246.357
248.308
266.806
307.67
371.618
572.391
849.696
1081.89
1300.32
1728.52
2264.59
3070.64
4322.33
6648.42
8287.93
11078.2
9967.36
8209.29
8826.92
7875.09
5823.04
4999.16
4505.31
3724.06
2395.53
1390.66
580.345
192.042
1086.71
3321.29
3707.49
3889.67
4303.53
4546.6
4383.08
4312.33
5819.64
4942.56
6795.87
6614.22
3732.16
2516.82
1999.58
1766.89
1607.75
1592.09
1539.75
1196.6
986.353
901.99
808.727
763.895
737.339
708.402
651.043
581.231
500.332
392.132
328.569
266.543
228.033
224.174
217.501
217.46
231.939
251.865
241.535
239.071
260.843
307.912
386.065
614.081
877.363
1099.17
1330.82
1763.38
2326.49
3153.83
4481.78
6882.73
8485.74
18353
8661.26
8298.53
8902.1
7932.76
5994.13
4953.2
4563.05
3704.07
2366.39
1391.74
589.615
194.579
1074.42
3372.21
3813.89
4021.21
4439.83
4841.05
4860.08
4390.49
5329.45
6368.96
5295.13
7441.4
5138.47
3365.8
2394
1923.06
1678.04
1594.47
1570.07
1481.6
1111.19
974.175
879.734
772.185
739.289
692.894
649.061
567.216
498.777
411.415
326.842
268.111
226.348
220.8
220.196
217.946
218.928
236.636
250.855
233.613
228.392
255.662
311.832
404.648
652.422
902.463
1115.47
1357.81
1796.1
2391.78
3240.03
4627.54
7017.49
8878.9
11088.5
8077.21
8432.64
8868.92
7888.71
6086.61
4977.13
4590.5
3691.32
2338.06
1400.42
586.474
194.797
1055.12
3392.76
3880.28
4124.14
4533.29
4975.99
5277.99
4785.82
4688.85
7313.25
5368.9
6453.67
6038.63
4626.26
3141.89
2239.01
1848.11
1632.32
1561.01
1556.63
1380.93
1068.46
963.357
841.595
724.954
693.123
629.767
572.838
498.512
411.121
341.567
268.036
233.718
211.163
219.295
219.655
216.423
220.955
241.868
249.743
222.086
216.36
254.098
319.045
424.808
685.293
922.227
1130.04
1389.6
1817.65
2450.66
3313.57
4727.75
7072.1
8453.86
8220.66
7964.45
8449.41
8722.59
7744.46
6100.51
5000.46
4589.32
3655.88
2298.78
1389.14
593.582
196.43
1041.96
3415.66
3929.53
4195.86
4619.4
4988.65
5482.89
5272.34
4574.06
6571.7
7353.33
6068.43
6495.84
5238.09
4355.92
2839.07
2116.51
1758.88
1607.43
1556.65
1527.42
1277.42
1021.5
943.465
785.523
685.331
638.315
559.364
496.649
424.977
348.592
283.668
238.96
216.789
209.373
220.36
219.954
218.283
222.241
245.266
241.724
211.055
205.664
254.204
326.745
446.691
705.135
938.726
1143.53
1415.42
1843.52
2504.21
3392.37
4801.3
7088.03
8247.66
8019.48
8015.99
8353.07
8447.2
7518.08
6040.71
4987.51
4553.8
3621.38
2268.99
1393.65
604.217
196.072
1019
3441.76
3979.05
4260.91
4730.81
5057.37
5558.62
5618.68
4855.2
5036.67
8740.21
5924.5
6708.81
5198.13
5154.81
3929.37
2597.14
2019.45
1703.25
1587
1555.24
1466.7
1171.05
993.94
896.326
708.601
634.978
567.973
481.964
422.381
351.049
288.059
257.148
224.591
210.081
209.625
219.893
221.287
221.656
230.473
245.366
236.563
197.104
198.36
257.048
333.408
470.469
703.341
950.005
1159.53
1445.7
1866.51
2545.55
3443.82
4863.22
7113.23
8244.89
8216.34
8049.94
8120.21
8085.97
7236.82
5917.18
4931.35
4520.79
3568.63
2218.81
1402.38
590.29
195.624
999.913
3453.02
4048.4
4336.26
4857.69
5246.81
5602.03
5869.6
5318.99
4793.48
7352.52
7686.42
6453.25
5273.35
4923.04
5202.82
3451.62
2454.38
1884.53
1665.77
1578.86
1534.14
1374.22
1095.63
949.104
832.578
628.657
573.063
500.379
408.303
355.662
296.937
263.532
238.595
217.663
208.845
210.565
223.29
224.084
229.69
236.303
240.71
223.351
185.001
196.447
260.398
340.944
491.247
703.351
959.36
1176.35
1470.15
1893.22
2576.97
3495.2
4912.14
7037.58
8212.49
8322.52
7995.64
7830.84
7665.67
6918.66
5747.55
4838.23
4468.8
3514.86
2186.3
1396.74
586.084
189.59
976.534
3487.76
4096.7
4459.01
5009.85
5524.14
5888.7
6151.43
5893.42
4966.99
5571.49
9429.05
5634.81
6423.92
4151.59
5397.02
4880.69
3208.2
2291.95
1819.26
1624.22
1574.45
1472.81
1237.38
1022.78
891.881
747.189
574.439
506.316
443.021
351.306
303.252
266.443
249.465
236.606
213.607
208.858
209.941
231.875
235.448
238.097
238.325
232.3
207.364
176.524
195.436
263.728
349.143
500.07
716.828
968.656
1195.47
1495.29
1918.16
2608.59
3524.68
4856.78
6938.99
8115.85
8261.05
7804.02
7488.7
7213.1
6586.81
5543.45
4718.75
4396.63
3439.52
2134.54
1392.6
577.549
187.874
959.5
3567.34
4164.07
4581.93
5229.79
5871.3
6437.51
6562.31
6445.29
5359.42
5168.56
8066.52
6746.19
6094.45
4474.69
3909.26
5570.21
4374.5
3000.11
2175.25
1766.05
1609.65
1546.11
1364.52
1156.11
950.954
816.867
658.044
521.734
454.76
386.869
310.074
280.485
253.25
246.264
235.787
212.827
209.002
215.903
242.027
249.503
242.867
233.988
220.781
188.161
174.22
196.794
266.8
357.006
501.476
722.098
978.06
1216.09
1516.42
1946.52
2641.41
3527.15
4839.56
6820.79
7945.37
8030.46
7484.89
7081.76
6738.81
6248.5
5322.7
4589.05
4310.55
3371.54
2107.87
1394.92
551.724
185.298
936.25
3694.49
4292.25
4748.79
5506.25
6309.57
7135.8
7478.54
7224.04
6442.59
5152.75
6460.27
8824.81
4966.91
5398.97
3426.88
4888.44
5359.09
4116.58
2848.57
2069.5
1712.69
1602.37
1489.86
1222.67
1078.21
871.211
741.632
581.954
487.876
403.214
342.36
291.518
261.918
246.97
244.127
233.429
213.676
210.243
225.619
252.254
260.192
246.58
225.47
206.041
172.728
173.453
198.261
267.817
361.124
501.401
721.743
987.013
1237.93
1536.65
1974.15
2671.28
3540.86
4781.59
6683.49
7674.05
7688.56
7093.87
6649.01
6241.42
5913.64
5096.59
4455.1
4219.24
3280.51
2105.88
1358.04
539.816
186.14
930.452
3850.5
4495.06
5006.9
5875.9
6821.99
7967.63
8819.73
8436.76
7614.28
5729.81
5281.16
8706.79
5775.14
4991.11
3889.55
3221.18
5366.41
5217.53
3937.68
2707.49
1987.1
1677.74
1588.91
1363.13
1149.15
998.035
797.35
663.055
517.029
445.102
369.934
311.617
281.975
257.357
245.36
244.446
233.678
212.855
216.659
237.537
260.79
264.774
248.696
212.585
188.697
167.134
174.517
198.726
267.645
361.316
503.305
723.379
998.386
1258.73
1554.05
2002.63
2689.57
3493.38
4728.34
6520.71
7413.73
7278.85
6672.98
6212.38
5785.67
5579.71
4875.32
4322.76
4120.41
3196.31
2105.94
1348.34
516.853
188.011
930.109
4057.68
4765.55
5331.55
6338.73
7423.11
8894.01
10422
10382.3
8915.05
7482.81
5237.67
6308.48
7377.18
4226.97
4386.32
3067.02
3794.78
5437.1
4947.36
3741.31
2559.1
1892.32
1657.05
1525.45
1226.52
1104.46
920.371
722.237
593.919
476.028
419.184
352.504
308.448
276.895
254.24
244.573
245.155
232.227
215.534
225
242.173
263.115
266.158
241.552
195.117
171.568
167.054
174.283
198.233
266.915
361.635
505.44
732.473
1011.29
1279.58
1568.1
2029.95
2710.34
3475.13
4613.95
6321.98
7067.3
6857.76
6244.95
5780.99
5359.88
5254.02
4657.54
4197.3
4015.05
3102.09
2097.14
1327.72
507.068
186.767
921.147
4349.21
5108.73
5761
6859.34
8090.13
9902.45
12047.7
12610.2
10797.4
9519.22
5962.57
5187.33
7503.3
4718.84
4175.63
3399.32
2966.13
4476.7
5183.37
4801.73
3561.24
2421.35
1818.27
1646.01
1400.79
1155.1
1044.41
856.75
647.747
540.04
458.351
419.273
353.372
302.262
276.479
251.898
244.984
244.422
231.677
218.806
234.895
245.432
262.765
263.191
226.758
177.056
158.43
164.345
172.108
199.119
262.773
359.698
498.722
737.616
1024.79
1298.56
1577.51
2047.88
2741.76
3436.85
4544.18
6109.69
6656.86
6436.08
5828.12
5361.35
4964.24
4936.75
4449.32
4070.9
3896.26
3010.09
2103.95
1307.79
492.448
188.179
922.894
4712.73
5590.83
6359.34
7485.64
8819.12
10977.9
13456.3
14188
12987.5
11414.8
8240.41
5244.96
5667.79
5618.87
3634.36
3561.65
2977.95
3091.79
4776.69
5095.88
4633.14
3323.36
2269.34
1756.83
1588.98
1268.92
1127.12
993.115
776.721
598.376
498.2
455.893
411.457
355.79
302.516
278.654
252.953
245.393
243.771
230.335
228.023
236.821
245.145
261.295
255.764
213.131
160.269
153.564
166.717
173.795
194.776
257.672
349.853
489.064
747.865
1037.44
1315.27
1583.12
2051.09
2788
3418.2
4423.6
5816.9
6257.32
6039.24
5431.56
4966.28
4589.08
4628.57
4258.6
3938.32
3777.67
2921.77
2068.52
1272.94
481.064
187.058
913.246
5238.69
6160.58
7091.13
8296.01
9603.28
12032.5
14432.8
14698
13795
13066.7
11073.2
6107.3
5184.92
5831.81
3971.54
3617.2
3188.71
2964.23
3493.97
4978.66
5007.8
4386.36
3136.06
2090.58
1722.96
1492.25
1211.02
1102.21
930.106
721.008
555.505
484.188
456.948
418.67
346.639
304.104
279.042
253.562
243.726
245.059
229.538
231.815
237.185
243.903
254.866
242.121
196.389
146.348
151.865
166.267
170.16
192.638
250.857
341.861
490.222
758.764
1049.25
1328.36
1598.52
2065.97
2797.49
3369.64
4300.12
5558.49
5875.76
5678.29
5085.79
4605.62
4239.93
4327.15
4079.2
3800.41
3657.72
2837.27
2059.32
1243.92
473.259
189.917
908.308
5903.1
6966.41
8005.64
9205.44
10514
13019.7
14880
14829.2
13741
13481.3
13389.7
8527.44
5483.49
5401.87
4544.02
3578.01
3382.08
3120.47
3133.95
3985.11
5008.7
4909.97
4172.28
2832.76
1977.51
1643.34
1359.96
1195.09
1082.06
881.779
665.001
536.729
482.275
454.898
417.038
345.431
301.633
278.551
250.858
244.959
244.998
232.344
234.506
235.344
242.166
241.348
223.429
178.367
140.726
152.979
164.233
169.937
186.463
245.439
334.721
493.719
767.139
1062.44
1337.06
1609.45
2028.33
2813.77
3349.57
4216.58
5284.01
5518.74
5351.55
4838.38
4276.05
3929.05
4042.47
3912.4
3669.53
3540.49
2763.31
2023.75
1221.71
464.801
191.233
894.995
6778.01
8004.09
9126.66
10242.3
11561.3
13876.5
15188.4
14209.1
13608.4
13297.8
13920.6
11922
6739.41
5583.64
4903.54
3813.62
3620.07
3350.43
3142.39
3357.62
4425.71
5067.78
4801.43
3848.2
2585.09
1816.23
1538.26
1286.38
1199.57
1067.43
836.362
640.104
517.341
475.756
458.568
409.389
347.854
305.659
282.156
250.096
246.927
245.249
237.781
233.544
231.233
233.537
222.242
201.437
161.87
139.05
153.295
166.095
170.298
182.313
236.246
327.418
496.949
780.268
1080.32
1345.14
1610.41
2021.08
2754.9
3304.68
4086.36
5012.22
5187.85
4983.68
4624.49
3984.34
3641.68
3785.97
3755.33
3546.48
3425.32
2698.45
2003.22
1183.65
471.429
187.875
894.048
7754.47
9283.44
10458.8
11365.2
12875.2
14734.9
15224.8
13923.8
12752.5
12709.3
13826.3
14204.4
9026.28
6382.78
5423.65
4452.94
3856.04
3604.1
3365.23
3351.07
3624.35
4822.62
5044.64
4619.29
3458.96
2311.69
1668.54
1414.78
1259.44
1201.24
1080.98
812.908
617.201
509.015
472.5
449.576
419.111
350.246
314.553
283.87
248.186
246.196
247.081
240.139
228.736
224.717
218.264
199.205
178.315
147.305
137.738
153.889
165.837
169.51
174.358
229.44
319.881
503.591
795.119
1096.09
1355.97
1618.3
2007.46
2737.92
3272.89
3989.77
4773.69
4831.84
4648.73
4400.59
3718.15
3391.81
3558.72
3606.42
3428.58
3316.34
2643.68
1966.37
1158.82
469.019
192.168
883.245
8771.41
10680.3
11938.4
12602.8
14433.7
15598.9
15088.3
13050.6
12061
11825.5
12977
14646.2
12048.7
8154.2
6271.18
5281.14
4379.33
3969.22
3657.22
3503.1
3593.89
3963.17
5034.67
5015.43
4234.67
3036.83
2038.75
1539.13
1315.13
1254.58
1213.04
1079.65
797.305
601.485
503.328
462.603
448.951
418.904
340.158
327.084
282.948
244.953
247.881
250.156
239.693
224.464
213.266
195.661
173.172
155.325
135.33
137.332
156.439
167.32
168.332
171.065
217.64
317.466
508.593
807.358
1112.35
1368.15
1626.25
1999.05
2700.14
3216.86
3889.51
4513.22
4507.87
4368.41
4195.46
3486.69
3165.63
3362.23
3465.62
3314.12
3209.09
2591.46
1915.12
1110.79
467.32
196.722
878.656
9856.97
12058.5
13447.3
14028.7
16255
16810.9
14417.3
12403.2
11393.2
11001.1
11626.4
14283.4
15061.3
10218.5
7893.3
6575.38
5304.85
4727.67
4228.91
3770.54
3695.17
3920
4288.9
5117.83
4860.53
3739.84
2599.81
1816.1
1413.36
1281.51
1254.88
1228.64
1080.26
789.445
589.124
494.973
457.118
444.534
405.813
338.674
325.907
262.623
243.122
250.623
252.144
239.356
215.348
198.365
170.502
147.418
134.881
127.236
138.145
154.01
165.977
164.951
170.074
211.423
320.67
522.063
813.731
1126.14
1379.11
1613.54
1993.96
2681.81
3189.06
3758.51
4268.73
4223.24
4140
3989.99
3276.93
2961.86
3195.41
3334.88
3208.16
3106.95
2541.37
1882.93
1068.16
461.255
199.362
875.963
11123.4
13236.5
14924.8
15873
18322.4
18163.2
14563.7
11804.2
11238.6
10782.2
11464.5
12532.8
15667.9
12696
9955.1
8130.56
6493.15
5640.26
5148.3
4372.19
3677.59
4026.06
4178.02
4497
5133.83
4312.88
3060.23
2324.59
1569.46
1365.63
1266.47
1262.38
1248.31
1116.83
786.804
580.687
484.347
451.18
446.025
379.149
339
312.782
252.018
243.608
254.565
252.625
233.553
207.668
180.552
148.552
125.466
119.81
125.002
138.226
155.276
163.245
166.148
170.267
208.765
322.056
527.465
826.334
1142.06
1389.46
1602.98
1989.33
2660.05
3137.52
3648.78
4052.93
3999.15
3972.05
3782.93
3089.6
2784.14
3057.15
3217.88
3104.64
3008.09
2477.11
1818.24
1004.75
457.934
200.894
879.564
12585.8
14402.3
16437.4
18299.6
20463
19475
14353.4
12840.2
11901.5
11653.1
11525.1
11753.4
15518.8
15674.3
12011.8
10178.3
8479.71
7154.43
6362.1
5233.84
4050.17
3879.59
4424.21
4274.73
4786.51
4935.23
3447.15
2679.08
1932.85
1488.46
1323.84
1262.53
1280.19
1270.31
1132.48
776.203
565.333
473.961
450.527
437.668
363.753
326.595
298.624
245.919