/*--------------------------------*- C++ -*----------------------------------*\
| =========                 |                                                 |
| \\      /  F ield         | OpenFOAM: The Open Source CFD Toolbox           |
|  \\    /   O peration     | Version:  2212                                  |
|   \\  /    A nd           | Website:  www.openfoam.com                      |
|    \\/     M anipulation  |                                                 |
\*---------------------------------------------------------------------------*/
FoamFile
{
    version     2.0;
    format      ascii;
    arch        "LSB;label=32;scalar=64";
    class       volScalarField;
    location    "100";
    object      p;
}
// * * * * * * * * * * * * * * * * * * * * * * * * * * * * * * * * * * * * * //

dimensions      [0 2 -2 0 0 0 0];

internalField   nonuniform List<scalar> 
165000
(
-755.428
-1550.17
-4401.06
-1576.42
-4745.35
-8560.53
-2045.77
-4820.53
-9295.8
-12722.2
-134.258
-5608.53
-9053.25
-14123.3
-18054.4
-6881.68
-2759.54
-9715.97
-13721.6
-19189.6
-23639.1
-30319.1
-16062.7
-6804.74
-13415.6
-18567.3
-24252.2
-26390
-50367.2
-59511
-16627.6
-12001.2
-17517
-23561.8
-29532.1
-29842.3
-59022.9
-98175.3
-47643.9
-21374.6
-17262.6
-21494.4
-28724.8
-34935.8
-36842.8
-58032.3
-115339
-80531.3
-38255.3
-23352.5
-22240.7
-25984.8
-34062.7
-40582.9
-44679
-51649.6
-113478
-95288.8
-62246.3
-42459.3
-23233.9
-27314.1
-30845.6
-39643.4
-46356.8
-49263.2
-40067.7
-100998
-93880.1
-73028.1
-65057.8
-48628.9
-24619.4
-32681.1
-36268
-45369.9
-52279
-52913
-26832.6
-78397.3
-83369.6
-72261.3
-74669.3
-71607
-50138.8
-28087.1
-38825.7
-42183.8
-51382.6
-58345.1
-57846.6
-13433.4
-52972.8
-64435.3
-64763.5
-73770.4
-81085
-70479.5
-53832
-32985.3
-45329.3
-48622.5
-57561.9
-64549.2
-63714
-2922.99
-27524.1
-43740.9
-51009.4
-66925.3
-79960.6
-79271.6
-71119.5
-58894.3
-38486.2
-52127.8
-55518.3
-64116.3
-70882.2
-69789.7
-191.555
-8049.81
-20461
-36208.7
-53446.9
-72556.4
-77965.2
-79139.4
-73506.5
-64165.7
-43823.3
-60052.9
-63133.7
-70806.5
-77310
-76030.6
-291.343
-4060.09
-10117.3
-22537.8
-40640
-58760.3
-70876.3
-77260.9
-81284.8
-75890.3
-70053
-50052.7
-68899.2
-71243.2
-77911.3
-83905.7
-83389.3
-1199.29
-2897.03
-7165.78
-14465.6
-26949.5
-44086.1
-58247.9
-71248.7
-78096.6
-82710.1
-79220.8
-76688.7
-58453.7
-78598.2
-80211.7
-85174.2
-90643.5
-91149.7
-1348.44
-4245.01
-6858.03
-10622
-18779.7
-30589.5
-46362.1
-59982
-72907.1
-78843.5
-84793
-83047.3
-84885.9
-68688.7
-88890
-89798.6
-92817
-97561.6
-96788.7
-1319.35
-3912.57
-7720.46
-11145.4
-15726.8
-23748.1
-35408.5
-50229.1
-62526.5
-74834.6
-80362.4
-87425.6
-88098.4
-94432.8
-80854.4
-100299
-100173
-100604
-104530
-101663
-1145.28
-4232.95
-7782.71
-11047.7
-15285.7
-20671.2
-29140.7
-40713.4
-54917.4
-65676.2
-77111.9
-82559.2
-91118.3
-93773.9
-104876
-94431.6
-113546
-110914
-108600
-111556
-107293
-1315.66
-3954.83
-7616.02
-11840.8
-14521.4
-19965.2
-26430.9
-35641.9
-47262.7
-60300.2
-69248.5
-80339.2
-85258.1
-95151.1
-100893
-116852
-111065
-129322
-122117
-116750
-118608
-113077
-1422.79
-4335.7
-7314.19
-10445.1
-15825.5
-18799.6
-25357.3
-33763.9
-43247.4
-54545.6
-66799.1
-73998.5
-83832.8
-88432.1
-100332
-108777
-129864
-129498
-143948
-133766
-125069
-125721
-119046
-1380.32
-4342.69
-7689.64
-11228.7
-14218.8
-19953.7
-24125.1
-32014.9
-41721.2
-51604.7
-63154.9
-74181
-79273.8
-88300.8
-92181.4
-106325
-118570
-144010
-148798
-154951
-145568
-133541
-132937
-125291
-1326.44
-4357.47
-7902.39
-11141.6
-15804.7
-19183.1
-24420.2
-30173.9
-39179.2
-50728.4
-61571.5
-72048.1
-82685.5
-85826.6
-93076.3
-96578.7
-113006
-129356
-157656
-166710
-163463
-157551
-142136
-140013
-131389
-1212.09
-4278.48
-7965.55
-11672.8
-15003.5
-19769
-24837.8
-30191.9
-37335.4
-47176.2
-60416.7
-72353.3
-81788
-92007.8
-93067.1
-98895.4
-101599
-120865
-142443
-169290
-180796
-170054
-169221
-150810
-147429
-137366
-1288.31
-3928.96
-7877.15
-11852.1
-15576.4
-19435.5
-23911.8
-30516.1
-37112.8
-45773.4
-55853.9
-70196.3
-83274.4
-92788.3
-102284
-101776
-105232
-107356
-129460
-157404
-183832
-191524
-179494
-181024
-159643
-154727
-143120
-1104.23
-3957.39
-7527.44
-11750.6
-16065.3
-19753.2
-24341.6
-29116.9
-36238.4
-44322.2
-54555
-64996.1
-80817.5
-95102.4
-105103
-113840
-111322
-112545
-113800
-139671
-174328
-197834
-205362
-193381
-193325
-168538
-161933
-148861
-1162.91
-3582.76
-7607.09
-11359.5
-15836.3
-20365
-24405.9
-29461
-35242.4
-43058.9
-52013.1
-63340.9
-75427.8
-92264.3
-108564
-118550
-126422
-122486
-120638
-121029
-150954
-193249
-211481
-226302
-210348
-206120
-177579
-168903
-154450
-1283
-3636.04
-7212.77
-11494.4
-15403.4
-20137.5
-24839.1
-29554.1
-35008.9
-41629.7
-51007
-61007.9
-72565.9
-87377.9
-104753
-123868
-134021
-140610
-134740
-129734
-129149
-164117
-212622
-234222
-248876
-228259
-219252
-186669
-175773
-159948
-1312.72
-3855.47
-7159.05
-11025
-15588.5
-19639.7
-24740.5
-29642.3
-34977.7
-41192.1
-48962.8
-59713.2
-70309.3
-82920
-100806
-118841
-140161
-152123
-154500
-148382
-139900
-138100
-178159
-233857
-261074
-273640
-248404
-232796
-195840
-182453
-165235
-1344.84
-3839.11
-7262.32
-10854.3
-15034.8
-19844.9
-24102.4
-29544.1
-34915.3
-40784
-47380.3
-56695.7
-68183
-80093.9
-94909.5
-115916
-134608
-156825
-171338
-168960
-163453
-151056
-148576
-194385
-257047
-290476
-300308
-269643
-246593
-204993
-189022
-170229
-1348.32
-3807.33
-7154.91
-10814.8
-14773.8
-19257
-24299.8
-28767.4
-34712.6
-40356
-47191.6
-54272.8
-64956.8
-77552.7
-90413.6
-107639
-132642
-150801
-173572
-190042
-185824
-180080
-163686
-160475
-211927
-283260
-322578
-329187
-292654
-260645
-214177
-195498
-175011
-1391.42
-3672.61
-7044.87
-10659
-14718.4
-18811.5
-23832.2
-28936.9
-33673.9
-40120.1
-46300.6
-53867.7
-62161.4
-73818.8
-88172.3
-101720
-121136
-149215
-166837
-190966
-206683
-205606
-198496
-177494
-174299
-231550
-311973
-357824
-359799
-316819
-274885
-223298
-202148
-179775
-1373.04
-3639.86
-6871.4
-10568.5
-14461.3
-18681.7
-23237.3
-28449.8
-33792.1
-38833.5
-45880
-52707
-61148.9
-70654.2
-83468.6
-98842.8
-115278
-135340
-164724
-183113
-210635
-225596
-227310
-218737
-193367
-189556
-253272
-344174
-396076
-391202
-341668
-289268
-232364
-208645
-184697
-1258.29
-3548.2
-6784.53
-10402
-14283.6
-18411.9
-22925.6
-27767.3
-33373.7
-38815.8
-44344.8
-51947
-59512.8
-68988.4
-79905.9
-93740.3
-110133
-130820
-150799
-180463
-201372
-232091
-247666
-250637
-241169
-210867
-207013
-277437
-379403
-436488
-422369
-366266
-303710
-241222
-214719
-189515
-1149.66
-3547.74
-6660.32
-10222.4
-14120.6
-18232
-22577.3
-27407.5
-32550.2
-38398.4
-44167.4
-50157.7
-58434.9
-66583.7
-77476.9
-89650.5
-104663
-122309
-146695
-168572
-196845
-221968
-254158
-272805
-275564
-265688
-230739
-226342
-304411
-417100
-478079
-452653
-389904
-318071
-249880
-219651
-194127
-992.466
-3313.9
-6484.58
-10128.2
-13909.9
-17998.7
-22434
-26894
-32104
-37470.8
-43743
-49752.9
-56442.4
-65253.6
-74094.1
-86494.7
-99927.9
-116115
-135763
-160297
-188470
-214377
-243860
-277429
-301563
-300222
-292484
-252733
-248155
-333883
-456455
-519908
-482007
-412347
-332162
-258190
-223389
-198441
-736.77
-3443.18
-6742.1
-9993.48
-13774.5
-17748.5
-22150.3
-26797.7
-31303.2
-36967.6
-42661.6
-49280.4
-55729.1
-63113.7
-72486.7
-82071.4
-95979
-110651
-128058
-150463
-173596
-207618
-233620
-267962
-302581
-333399
-326850
-321937
-277277
-272191
-366444
-498697
-561372
-511271
-433704
-345829
-266141
-227737
-202445
-685.442
-3898.66
-6630.62
-9912.9
-13671.7
-17605.4
-21863.6
-26468.8
-31146.6
-36164.1
-42059
-48075.8
-55087.4
-62027.3
-70292.9
-80081.4
-90592.4
-105814
-121766
-140429
-166003
-189281
-225710
-253827
-295276
-329740
-368097
-360806
-353554
-303982
-298818
-401363
-541671
-602247
-541808
-454443
-358926
-273683
-233070
-206246
-828.067
-4074.25
-6740.43
-9883.62
-13620.6
-17418
-21688.7
-26086.1
-31056.9
-35752.1
-41173.3
-47319.4
-53789.2
-61107.1
-68711.2
-77934.8
-88103.8
-99590.1
-116042
-133363
-153488
-182458
-206813
-243726
-274923
-325629
-360173
-403805
-399039
-387008
-333155
-327629
-438092
-584169
-642420
-574734
-474952
-371441
-280826
-237645
-209757
-926.605
-3878.77
-7289.35
-9918.28
-13627.1
-17228.6
-21498.7
-25908.4
-30570.4
-35569.2
-40777
-46414.6
-52866.8
-59730
-67425.3
-75693.9
-85927.9
-96523.5
-109154
-126557
-145623
-167258
-199785
-225496
-262398
-297438
-357672
-392784
-440533
-437625
-423079
-365167
-358895
-475976
-626597
-681690
-609845
-495324
-383439
-287284
-242234
-213030
-1005.34
-3870.28
-7224.05
-10343.9
-13542
-17092.5
-21375.3
-25643.2
-30308.3
-35176.6
-40486.7
-45836.1
-51936.8
-58622.5
-65923.4
-74090.3
-82993.9
-94051.5
-105400
-119222
-137529
-158299
-182011
-216779
-245260
-283148
-321293
-389087
-425003
-480933
-480007
-463332
-400501
-392708
-514550
-668652
-719946
-645607
-515123
-395138
-293297
-246485
-216051
-1105.24
-3792.63
-7286.77
-10665.4
-13499
-17115.8
-21220.7
-25460.6
-30027.7
-34863
-40022.6
-45461.7
-51262.3
-57625.8
-64658.3
-72349.8
-81083.1
-90618.5
-102440
-114634
-129823
-148963
-171317
-197584
-233697
-265588
-307400
-347155
-419760
-459295
-526724
-528445
-508202
-439465
-429456
-552900
-709564
-757657
-679634
-533592
-406531
-298771
-250408
-218799
-1141.89
-3736.36
-7202.55
-10581.4
-14022.8
-17103.1
-21132.3
-25263.4
-29792
-34537.7
-39625
-44994.9
-50727.9
-56804.5
-63563.3
-70918.6
-79112.9
-88307.4
-98569.1
-111020
-124304
-140766
-160847
-184833
-213703
-250669
-286647
-334461
-374660
-451707
-499357
-578252
-583559
-558205
-482506
-469265
-591503
-748833
-794926
-709860
-549974
-417407
-303833
-254147
-221313
-1228.89
-3668.01
-7127.11
-10588.6
-14166.8
-17274.4
-20987.7
-25080.1
-29586.9
-34259.1
-39248.3
-44556.4
-50189.1
-56169.1
-62600.6
-69692.9
-77419.7
-86117
-95831.8
-106787
-119894
-134262
-152032
-173151
-198789
-230206
-268002
-308656
-361604
-404741
-486286
-545398
-635523
-645448
-614318
-530006
-512045
-630181
-786121
-831185
-735577
-564151
-427430
-308328
-257397
-223529
-1314.01
-3632.69
-7098.01
-10550.4
-14038.1
-17645.3
-20855.2
-25044.7
-29404.3
-33993.9
-38912.6
-44131.8
-49703.7
-55536.9
-61821.6
-68588.5
-76045.8
-84156.7
-93405.3
-103575
-115326
-129041
-144573
-163429
-185912
-213239
-247103
-286041
-331647
-387122
-438356
-523280
-596165
-698262
-714990
-678258
-582725
-557861
-668118
-820917
-865993
-758741
-576702
-436369
-312269
-260353
-225482
-1368.27
-3573.02
-7103.13
-10661.9
-13959.2
-17624.7
-21229.5
-24944
-29139.9
-33802.4
-38612.2
-43743.7
-49212.4
-54992.7
-61100.2
-67671.5
-74788.5
-82565.3
-91154.2
-100870
-111632
-124066
-138500
-155086
-175087
-199015
-228096
-264395
-305243
-355007
-411657
-474818
-561701
-649965
-766688
-794054
-752138
-641185
-606105
-705047
-854439
-898948
-783033
-588554
-444135
-315560
-262917
-227151
-1437.19
-3531.2
-7055.72
-10744.6
-13895.3
-17496.3
-21471.1
-24801.2
-29117
-33594.4
-38365.5
-43393.2
-48766.4
-54444.2
-60475.5
-66830.1
-73704.1
-81185.1
-89312.2
-98342.3
-108598
-119885
-133098
-148211
-165893
-186898
-212514
-243331
-282048
-325747
-378681
-437433
-513383
-601711
-706655
-842793
-884570
-837158
-705355
-656799
-742520
-888664
-930196
-809884
-600197
-451010
-318250
-265061
-228538
-1468.9
-3487.3
-7001.58
-10883.5
-13827.1
-17255
-21400.5
-25210.9
-28955.6
-33378.9
-38087.3
-43076.7
-48342.7
-53949.6
-59860.1
-66096.5
-72768.8
-79920.1
-87783.1
-96244.9
-105779
-116475
-128416
-142275
-158189
-176863
-199003
-226242
-258975
-300103
-347114
-402786
-465513
-553175
-644819
-769589
-929905
-986929
-933793
-774951
-709785
-783093
-924448
-960811
-835624
-611345
-457205
-320303
-266830
-229655
-1489.08
-3438.89
-6939.96
-10936.2
-13787.1
-17018.6
-21283.9
-25480.1
-28898.6
-33420.9
-37837.6
-42715.9
-47989.3
-53458.9
-59305.5
-65424.5
-71906.8
-78845.1
-86324.2
-94534.5
-103420
-113355
-124598
-137094
-151703
-168328
-188067
-211292
-240240
-274874
-318576
-368742
-427597
-495790
-593866
-692602
-843680
-1.0308e+06
-1.10043e+06
-1.04083e+06
-849158
-765817
-830393
-961297
-992512
-854717
-620970
-462989
-321846
-268179
-230479
-1514.25
-3440.7
-6940.73
-10833.6
-13637.3
-16781.4
-21122.8
-25478.3
-29270.7
-33092.6
-37723.4
-42474
-47609.9
-53047
-58746.5
-64814.5
-71143.2
-77881.6
-85122.7
-92849.2
-101459
-110751
-121139
-132854
-146002
-161240
-178678
-199378
-223809
-254409
-291076
-337355
-390432
-452983
-527748
-635533
-745884
-930520
-1.14689e+06
-1.22296e+06
-1.15675e+06
-926386
-824758
-886913
-999503
-1.0272e+06
-866705
-628110
-468094
-322840
-269116
-231035
-1613.97
-3479.79
-6964.88
-10672
-13461.7
-16533.1
-20893.3
-25432.3
-29481.2
-33034.9
-37666.3
-42236.1
-47277.9
-52626.1
-58278.6
-64197.9
-70486.3
-76999.6
-84035.6
-91468.9
-99584.6
-108486
-118286
-129017
-141319
-155001
-170947
-189124
-210854
-236417
-268760
-307386
-356330
-412139
-479025
-560843
-678647
-804881
-1.02744e+06
-1.27596e+06
-1.35288e+06
-1.27991e+06
-1.00576e+06
-885112
-950124
-1.04254e+06
-1.06574e+06
-877070
-632263
-472325
-323339
-269672
-231319
-1696.84
-3565.37
-6949.8
-10527.5
-13226.5
-16352.2
-20648.9
-25271
-29329.7
-33328.3
-37397.8
-42022.5
-47040.1
-52237.3
-57765.3
-63702.3
-69776
-76290.5
-83006.8
-90348.1
-98000.2
-106398
-115665
-125910
-137079
-149876
-164157
-180728
-199702
-222352
-249170
-283178
-323846
-375345
-433907
-505594
-594867
-723496
-870012
-1.13064e+06
-1.41375e+06
-1.48683e+06
-1.40824e+06
-1.0868e+06
-949328
-1.01627e+06
-1.09433e+06
-1.10736e+06
-891474
-633765
-475118
-323315
-269799
-231341
-1745.75
-3606.57
-7013.21
-10402.3
-12989.5
-16178.4
-20457.7
-24964.5
-29372.2
-33361
-37384.1
-42050.1
-46680.6
-51909.1
-57388.4
-63102
-69248.5
-75505.7
-82218.6
-89147.6
-96746.5
-104619
-113429
-122940
-133668
-145209
-158559
-173352
-190594
-210291
-233935
-261931
-297632
-340260
-394315
-455607
-532604
-629767
-770265
-942032
-1.23749e+06
-1.55177e+06
-1.62034e+06
-1.54055e+06
-1.16811e+06
-1.02177e+06
-1.08354e+06
-1.15573e+06
-1.15213e+06
-911709
-633242
-476491
-322773
-269556
-231093
-1801.33
-3609.13
-7060.04
-10222.1
-12975
-16008
-20314
-24744.3
-29284.6
-33263.8
-37626
-41876.5
-46592.7
-51454.6
-56983.8
-62684.2
-68527.8
-74936.2
-81332.2
-88262.2
-95448.7
-103249
-111406
-120492
-130376
-141468
-153470
-167284
-182628
-200465
-220917
-245453
-274715
-312001
-356654
-413082
-477319
-559738
-665749
-818909
-1.02103e+06
-1.34641e+06
-1.68828e+06
-1.74926e+06
-1.67973e+06
-1.2494e+06
-1.10256e+06
-1.14986e+06
-1.22119e+06
-1.20181e+06
-934924
-631227
-476274
-321821
-268915
-230606
-1803.86
-3695.92
-7075.93
-10115.7
-12884.7
-15913.1
-20125.9
-24591.2
-29165.3
-33289.7
-37365.7
-41876.7
-46518.5
-51198.2
-56359.5
-62250.1
-68110.1
-74140.8
-80721.5
-87289.4
-94431.4
-101806
-109834
-118258
-127720
-137865
-149374
-161754
-176053
-191876
-210329
-231469
-256961
-287393
-326267
-372840
-431565
-498912
-586728
-702894
-868966
-1.10452e+06
-1.46053e+06
-1.83035e+06
-1.88081e+06
-1.82698e+06
-1.3295e+06
-1.18902e+06
-1.21411e+06
-1.2849e+06
-1.2526e+06
-955736
-627548
-474930
-320397
-267927
-229847
-1758.13
-3737.29
-7123.98
-10048.5
-12774.3
-16071.2
-19971.9
-24435.2
-28920.3
-33310.5
-37383.6
-41771.9
-46346.8
-50974.5
-56137.3
-61537.3
-67726.8
-73511.3
-80125.3
-86429.9
-93397.8
-100658
-108305
-116499
-125246
-134950
-145474
-157301
-170102
-184802
-201128
-220119
-241952
-268299
-299953
-340316
-388781
-449665
-520291
-613304
-740889
-919079
-1.18714e+06
-1.58238e+06
-1.9817e+06
-2.01872e+06
-1.97312e+06
-1.40101e+06
-1.27427e+06
-1.27616e+06
-1.34328e+06
-1.29557e+06
-968429
-621954
-472296
-318667
-266599
-228879
-1718.72
-3682.16
-7296.18
-9972.72
-12712
-15938
-19788
-24229.8
-28623.5
-33156.8
-37328.9
-41653.8
-46530.7
-50676.6
-55873.1
-61171.8
-66936.8
-73214.7
-79222.7
-85969.8
-92376.9
-99492.2
-106998
-114810
-123279
-132252
-142288
-153097
-165272
-178412
-193517
-210284
-229799
-252263
-279526
-312294
-354118
-404304
-467330
-541138
-639442
-778425
-967425
-1.26404e+06
-1.70192e+06
-2.13032e+06
-2.15814e+06
-2.12141e+06
-1.45185e+06
-1.34738e+06
-1.33319e+06
-1.39523e+06
-1.32357e+06
-970670
-614254
-468581
-316424
-264960
-227641
-1738.93
-3665.58
-7405.62
-9895.9
-12689.5
-15805.5
-19834.7
-23992.1
-28482.8
-32957.5
-37220.5
-41637.9
-46341.6
-50593.6
-55508.3
-60846
-66565.4
-72466.6
-78825.3
-85186.1
-91760.8
-98370.4
-105726
-113349
-121451
-130089
-139360
-149629
-160786
-173217
-186712
-202154
-219350
-239312
-262416
-290479
-324375
-367566
-419336
-484455
-561152
-665096
-813653
-1.01244e+06
-1.33096e+06
-1.79517e+06
-2.26154e+06
-2.29808e+06
-2.2705e+06
-1.48205e+06
-1.39658e+06
-1.37736e+06
-1.4338e+06
-1.33286e+06
-963048
-604902
-463495
-313846
-263018
-226225
-1758.56
-3765.65
-7458.59
-9853.24
-12607
-15789.6
-19815.1
-23857.5
-28402.9
-32741.1
-37171.9
-41672.8
-46219.4
-50510.2
-55172.2
-60533.6
-66229.3
-72006.4
-78091.4
-84590.2
-91108.5
-97685.9
-104552
-111929
-119810
-128094
-136992
-146476
-157017
-168449
-181129
-194917
-210673
-228241
-248626
-272313
-301203
-336127
-380587
-433748
-500903
-580035
-690205
-844543
-1.05429e+06
-1.38351e+06
-1.84597e+06
-2.3742e+06
-2.43158e+06
-2.38402e+06
-1.49547e+06
-1.41292e+06
-1.40035e+06
-1.44908e+06
-1.32155e+06
-946763
-594079
-457396
-310694
-260785
-224547
-1762.1
-3856.44
-7489.31
-9815.74
-12564.4
-15603.4
-19579.4
-23981.2
-28302
-32599.8
-36997
-41518.2
-46144.6
-50380.3
-55108.5
-60249.8
-65714
-71722.3
-77594.3
-83915.1
-90469.2
-97005.1
-103763
-110771
-118313
-126310
-134829
-143906
-153637
-164401
-176098
-188970
-203024
-219049
-236955
-257696
-281957
-311551
-347486
-393072
-447467
-516471
-597601
-714337
-869658
-1.09469e+06
-1.41781e+06
-1.883e+06
-2.50316e+06
-2.57435e+06
-2.41881e+06
-1.49077e+06
-1.39613e+06
-1.39416e+06
-1.43826e+06
-1.29015e+06
-924327
-582304
-450222
-307217
-258272
-222720
-1781.95
-3872.17
-7477.89
-9763.22
-12523.2
-15466
-19511.3
-24140.6
-28150.8
-32445.7
-36883.3
-41377.2
-45965.6
-50265.6
-54996.5
-59985.6
-65457.4
-71336.3
-77283.2
-83295.4
-89861.2
-96335.6
-103017
-109958
-117101
-124807
-132901
-141585
-150856
-160794
-171759
-183677
-196691
-210973
-227230
-245418
-266484
-291257
-321555
-358397
-404913
-460338
-531019
-613717
-736590
-889402
-1.13374e+06
-1.43555e+06
-1.9677e+06
-2.65657e+06
-2.72494e+06
-2.36385e+06
-1.46538e+06
-1.35464e+06
-1.35875e+06
-1.4046e+06
-1.24439e+06
-897088
-569549
-442298
-303280
-255507
-220653
-1802.3
-3880.65
-7432.45
-9672.61
-12497.9
-15376.5
-19474.9
-24156.9
-28109.9
-32353.5
-36781.4
-41253
-45807
-50305.8
-54833.9
-59864.6
-64933
-71057.7
-76848.3
-82965.1
-89184.1
-95774.7
-102325
-109072
-116180
-123478
-131353
-139515
-148375
-157801
-167923
-179089
-191149
-204288
-218754
-235201
-253620
-274959
-300216
-331100
-368778
-416001
-472315
-544241
-628315
-755944
-905293
-1.16912e+06
-1.44441e+06
-2.12815e+06
-2.77485e+06
-2.7882e+06
-2.22482e+06
-1.41796e+06
-1.29631e+06
-1.30143e+06
-1.35266e+06
-1.18923e+06
-866751
-556171
-433542
-299106
-252496
-218445
-1820.98
-3877.47
-7365.88
-9550.53
-12481.7
-15272.9
-19257.6
-23934
-28307.2
-32301.6
-36653.9
-41200.1
-45651.6
-50194.2
-54835.1
-59626.2
-64772.2
-70639.5
-76516
-82583.3
-88745.4
-95107.4
-101742
-108348
-115180
-122452
-129889
-137866
-146170
-155183
-164711
-175014
-186294
-198486
-211705
-226322
-242899
-261500
-283080
-308753
-340202
-378554
-426252
-483275
-555990
-641261
-771429
-919011
-1.19507e+06
-1.45298e+06
-2.30426e+06
-2.82422e+06
-2.73916e+06
-2.03658e+06
-1.34672e+06
-1.22593e+06
-1.23118e+06
-1.28914e+06
-1.12947e+06
-834181
-542107
-424246
-294604
-249279
-216036
-1835.54
-3875.5
-7299.7
-9432.91
-12467.6
-15139.8
-19037.4
-23740.6
-28424.7
-32196
-36619.1
-41124.5
-45550.1
-50092.8
-54812.8
-59347.6
-64658.3
-70433.1
-76251.4
-82208.1
-88321.2
-94619.1
-101074
-107716
-114419
-121362
-128713
-136289
-144354
-152815
-161960
-171595
-182004
-193403
-205650
-218940
-233652
-250318
-269049
-290837
-316879
-348768
-387643
-435612
-493120
-566092
-652368
-782994
-929809
-1.20816e+06
-1.46106e+06
-2.37847e+06
-2.77121e+06
-2.5906e+06
-1.84027e+06
-1.25772e+06
-1.14887e+06
-1.15495e+06
-1.2188e+06
-1.06866e+06
-799834
-527628
-414353
-289905
-245850
-213492
-1851.5
-3866.1
-7247.56
-9304.38
-12434.1
-14991.9
-18835.6
-23706.9
-28412.6
-32207.8
-36570.9
-40996.3
-45442.2
-49994.4
-54634.5
-59269.8
-64387.9
-70219.4
-75952.1
-81783.7
-87938.6
-94199.4
-100538
-107061
-113728
-120513
-127587
-135008
-142716
-150884
-159425
-168731
-178373
-188939
-200344
-212611
-225925
-240699
-257391
-276219
-298183
-324514
-356788
-395980
-444018
-501744
-574525
-661385
-790414
-937241
-1.2061e+06
-1.4582e+06
-2.30164e+06
-2.61371e+06
-2.39119e+06
-1.66033e+06
-1.16072e+06
-1.06976e+06
-1.07799e+06
-1.14587e+06
-1.00864e+06
-764268
-512652
-404103
-284951
-242270
-210790
-1863.47
-3851.8
-7186.67
-9181.1
-12331.1
-14887.9
-18643
-23510.4
-28319.1
-32312.1
-36541.6
-40920.5
-45291.5
-49858.4
-54497.7
-59159
-64122.2
-69962.7
-75659.2
-81604.8
-87599.2
-93733.7
-100083
-106500
-113051
-119772
-126656
-133825
-141300
-149144
-157354
-165999
-175363
-185091
-195664
-207108
-219326
-232649
-247428
-264117
-283005
-305108
-331673
-364190
-403491
-451439
-509066
-581174
-668105
-794177
-939269
-1.1926e+06
-1.43647e+06
-2.13829e+06
-2.40808e+06
-2.17201e+06
-1.50035e+06
-1.06589e+06
-991689
-1.00314e+06
-1.0732e+06
-950848
-727358
-497423
-393494
-279838
-238506
-207952
-1874.13
-3831.04
-7107.44
-9046.31
-12186.6
-14761
-18447.8
-23327.9
-28188
-32382.8
-36590.8
-40855.5
-45173.7
-49695.4
-54372.8
-59009.4
-63958.4
-69764.8
-75421.3
-81385.2
-87258.8
-93377.9
-99580.9
-106003
-112494
-119065
-125829
-132799
-140065
-147619
-155569
-163827
-172542
-181915
-191630
-202240
-213621
-225777
-239060
-253811
-270446
-289370
-311571
-338283
-370922
-410151
-457793
-515048
-586052
-672413
-793911
-936478
-1.16902e+06
-1.39581e+06
-1.95311e+06
-2.19229e+06
-1.95422e+06
-1.35779e+06
-978329
-916188
-931627
-1.00302e+06
-895192
-690011
-481914
-382712
-274535
-234631
-205001
-1885.38
-3800.04
-7015.02
-8905.34
-12051
-14555.7
-18291
-23144.6
-28045.9
-32405.5
-36685.7
-40810.3
-45095.5
-49527.4
-54214.1
-58885.1
-63841.7
-69492.7
-75247.5
-81126.9
-86979.1
-93093.5
-99194
-105520
-111956
-118494
-125061
-131911
-138977
-146322
-153903
-161978
-170199
-178986
-188294
-198025
-208565
-219889
-231942
-245157
-259823
-276379
-295312
-317561
-344335
-376955
-415908
-463074
-519648
-589178
-674101
-790556
-927496
-1.13857e+06
-1.34322e+06
-1.77516e+06
-1.98371e+06
-1.75287e+06
-1.22914e+06
-898827
-845202
-864052
-935095
-841860
-652679
-466303
-371781
-269100
-230609
-201923
-1892.6
-3768.94
-6905.74
-8774.67
-11920.9
-14371.1
-18113.5
-22976.5
-27922.9
-32354.8
-36739
-40754.8
-44999.4
-49384.7
-54033.2
-58741.2
-63752.3
-69328.8
-74999.5
-80889.4
-86741
-92768.2
-98951.1
-105072
-111527
-117946
-124435
-131111
-137992
-145149
-152536
-160185
-168248
-176517
-185285
-194526
-204201
-214664
-225868
-237799
-250901
-265446
-281890
-300804
-323033
-349781
-382228
-420745
-467224
-522878
-590574
-673481
-783440
-914542
-1.10222e+06
-1.28129e+06
-1.61512e+06
-1.7915e+06
-1.57646e+06
-1.11362e+06
-827203
-779875
-800589
-870371
-790686
-616426
-450701
-360760
-263552
-226515
-198764
-1885.96
-3739.51
-6797.62
-8643.42
-11774.1
-14246.1
-17924.4
-22810
-27821.9
-32307.1
-36714.9
-40799
-44905.7
-49288.7
-53887.9
-58591.7
-63647.4
-69201.4
-74790.8
-80684.3
-86553.3
-92525.1
-98535.3
-104828
-110988
-117469
-123906
-130407
-137169
-144120
-151308
-158758
-166349
-174504
-182678
-191427
-200552
-210159
-220495
-231551
-243336
-256280
-270669
-286982
-305826
-327984
-354602
-386735
-424643
-470253
-524660
-590304
-670154
-774118
-896340
-1.06223e+06
-1.21577e+06
-1.47506e+06
-1.61872e+06
-1.42182e+06
-1.01066e+06
-763393
-720045
-741538
-809470
-741811
-581630
-435021
-349807
-257901
-222301
-195493
-1867.6
-3691.89
-6701.83
-8512.42
-11644
-14106.3
-17779.4
-22653.5
-27734.6
-32223.8
-36732.5
-40881.1
-44798.5
-49214.3
-53775.8
-58457.4
-63547.1
-69073.2
-74678.1
-80507.2
-86260.5
-92243
-98259.5
-104464
-110635
-116923
-123375
-129878
-136325
-143244
-150217
-157439
-164866
-172474
-180579
-188693
-197341
-206358
-215857
-226033
-236911
-248517
-261273
-275486
-291631
-310375
-332379
-358763
-390428
-427593
-472124
-525083
-588276
-664960
-761366
-875532
-1.02024e+06
-1.14805e+06
-1.35578e+06
-1.46508e+06
-1.28611e+06
-919808
-706156
-665206
-686856
-752450
-695291
-548496
-419630
-338805
-252196
-218047
-192171
-1887.78
-3617.39
-6607.85
-8404.48
-11522.5
-13963.7
-17660.9
-22477.7
-27657.5
-32162
-36740.6
-40874.9
-44800.3
-49129.5
-53655.8
-58327
-63439.3
-68929.3
-74541.2
-80337
-86052.4
-92015.2
-98050.8
-104099
-110340
-116489
-122865
-129313
-135746
-142395
-149288
-156312
-163496
-170919
-178445
-186508
-194516
-203046
-211924
-221294
-231269
-241925
-253337
-265870
-279876
-295844
-314423
-336207
-362248
-393324
-429599
-472912
-524091
-584756
-657162
-747213
-851389
-976208
-1.08327e+06
-1.25374e+06
-1.32908e+06
-1.16753e+06
-839286
-654611
-615322
-636467
-699107
-651288
-517362
-404166
-328015
-246417
-213702
-188752
-1911.91
-3621.53
-6478.5
-8368.49
-11412.7
-13773.3
-17534
-22327.1
-27591.7
-32104.8
-36709.3
-40829.7
-44837.1
-49032.7
-53548.5
-58245.8
-63336.4
-68781.2
-74403.9
-80167.4
-85947.8
-91801.9
-97681.5
-103838
-109954
-116216
-122407
-128828
-135260
-141715
-148391
-155290
-162296
-169481
-176867
-184197
-192294
-200131
-208491
-217215
-226423
-236151
-246583
-257766
-270056
-283850
-299604
-317972
-339446
-365033
-395393
-430670
-472583
-521889
-579501
-648093
-730288
-825425
-933082
-1.02153e+06
-1.1644e+06
-1.20833e+06
-1.06348e+06
-767941
-608236
-569975
-589963
-649471
-609842
-487925
-389145
-317223
-240635
-209342
-185308
-1931.32
-3636.23
-6416.44
-8273.83
-11297.8
-13557.5
-17431
-22234.4
-27502.1
-32067.9
-36681.3
-40815.5
-44837.5
-49031.3
-53444.8
-58175.4
-63289.3
-68673.4
-74259.4
-80038.4
-85779.3
-91591.2
-97483.1
-103578
-109677
-115800
-122102
-128348
-134687
-141148
-147683
-154379
-161242
-168238
-175376
-182603
-189912
-197786
-205497
-213678
-222236
-231236
-240702
-250871
-261807
-273835
-287388
-302902
-320989
-342079
-367120
-396667
-430827
-471258
-518371
-573108
-636689
-712496
-798359
-889637
-963858
-1.08392e+06
-1.10188e+06
-971716
-704471
-566495
-528587
-547218
-603459
-570900
-460407
-374138
-306715
-234815
-204920
-181784
-1961.23
-3615.14
-6395.67
-8103.68
-11165.2
-13351.3
-17332.2
-22133.6
-27398.9
-32040.8
-36637.9
-40783
-44801.7
-48997
-53355.1
-58089.1
-63234.6
-68564.2
-74128.7
-79915.6
-85629.3
-91404.7
-97359.5
-103234
-109373
-115496
-121709
-127936
-134242
-140600
-147063
-153627
-160264
-167088
-174029
-181131
-188185
-195282
-203067
-210602
-218570
-226924
-235695
-244874
-254785
-265448
-277203
-290500
-305732
-323476
-344103
-368503
-397142
-430107
-468878
-513823
-565050
-624545
-692974
-769753
-847732
-910068
-1.00936e+06
-1.00738e+06
-890945
-648137
-528503
-490812
-507957
-560856
-534345
-434458
-359585
-296288
-229020
-200500
-178257
-1991.29
-3610.96
-6352.94
-8020.43
-11037.6
-13160.2
-17239
-22044.4
-27311.2
-32002.6
-36599.1
-40753.3
-44754.1
-48954.9
-53287.4
-58008.5
-63155.6
-68503.8
-73990.1
-79806.9
-85494.1
-91218.7
-97179.4
-103000
-109070
-115175
-121373
-127623
-133799
-140178
-146484
-152909
-159498
-166113
-172805
-179697
-186631
-193568
-200551
-208017
-215435
-223189
-231326
-239820
-248687
-258308
-268695
-280156
-293164
-308073
-325412
-345512
-369211
-396854
-428528
-465621
-508062
-556263
-610536
-672661
-741366
-807212
-859573
-941106
-923792
-819176
-597923
-493869
-456439
-471904
-521493
-500092
-410167
-345211
-286147
-223232
-196048
-174670
-2000.78
-3590.68
-6305.44
-7954.47
-10907.5
-13006.7
-17161.9
-21955.8
-27229.4
-31954.7
-36577.9
-40730.3
-44694.9
-48910.1
-53289.2
-57933.6
-63081.8
-68440.3
-73916.9
-79711.2
-85375.7
-91064.1
-96980.5
-102859
-108831
-114903
-121058
-127261
-133477
-139736
-146026
-152357
-158750
-165314
-171843
-178377
-185206
-192000
-198701
-205519
-212762
-219983
-227499
-235387
-243550
-252130
-261455
-271543
-282696
-295390
-309933
-326811
-346341
-369241
-395820
-426163
-461379
-501510
-545955
-596105
-651713
-712141
-767819
-812333
-878149
-849560
-754885
-553222
-462245
-425011
-438739
-485153
-467999
-387271
-331219
-276193
-217482
-191612
-171096
-1985.38
-3535.31
-6287.12
-7861.04
-10798.5
-12891.8
-17080
-21875.8
-27164.9
-31923.6
-36560.4
-40699.8
-44633.7
-48820.1
-53276.7
-57851
-63020.4
-68366.7
-73859.4
-79641.4
-85269.1
-90926.8
-96797.8
-102669
-108629
-114609
-120759
-126990
-133126
-139395
-145573
-151826
-158133
-164475
-171059
-177456
-183861
-190496
-197063
-203584
-210268
-217167
-224218
-231510
-239122
-246940
-255217
-264212
-273996
-284820
-297161
-311300
-327689
-346582
-368632
-394081
-422996
-456432
-493854
-535278
-580426
-630046
-683563
-730424
-768284
-820654
-783225
-696859
-513225
-433224
-396244
-408238
-451632
-437945
-365788
-317613
-266487
-211786
-187171
-167486
-1969.53
-3461.06
-6256.07
-7751.37
-10676
-12785
-17010.8
-21813.6
-27108.7
-31903.3
-36531.9
-40663.8
-44563.5
-48750.7
-53207.3
-57846.9
-62953.9
-68297.7
-73806
-79575.1
-85177.2
-90797.8
-96649.2
-102462
-108433
-114360
-120477
-126713
-132860
-139079
-145215
-151394
-157622
-163870
-170139
-176656
-182857
-189148
-195573
-201868
-208206
-214691
-221362
-228152
-235185
-242485
-249959
-257921
-266592
-276058
-286535
-298498
-312215
-328053
-346269
-367381
-391665
-419169
-450581
-485668
-523286
-564469
-608583
-654871
-694212
-726520
-767527
-723919
-644654
-477197
-406468
-369808
-380122
-420700
-409808
-345525
-304339
-257056
-206130
-182757
-163897
-1955.19
-3378.08
-6149.43
-7635.96
-10548.9
-12684.5
-16936.8
-21759.6
-27063.9
-31894.4
-36494.7
-40618.2
-44490.7
-48667.1
-53127.8
-57837
-62863.4
-68224.1
-73751.7
-79528.4
-85102.3
-90688.1
-96509.2
-102300
-108206
-114179
-120212
-126445
-132606
-138824
-144923
-151040
-157115
-163278
-169491
-175670
-182032
-188094
-194175
-200300
-206406
-212532
-218843
-225211