/*--------------------------------*- C++ -*----------------------------------*\
| =========                 |                                                 |
| \\      /  F ield         | OpenFOAM: The Open Source CFD Toolbox           |
|  \\    /   O peration     | Version:  2212                                  |
|   \\  /    A nd           | Website:  www.openfoam.com                      |
|    \\/     M anipulation  |                                                 |
\*---------------------------------------------------------------------------*/
FoamFile
{
    version     2.0;
    format      ascii;
    arch        "LSB;label=32;scalar=64";
    class       surfaceScalarField;
    location    "100";
    object      phi;
}
// * * * * * * * * * * * * * * * * * * * * * * * * * * * * * * * * * * * * * //

dimensions      [0 3 -1 0 0 0 0];

oriented        oriented;

internalField   nonuniform List<scalar> 
328790
(
-1.49431
-270.634
1.93917
-222.859
-1.20583
-269.429
5.34665
-192.799
2.16009
-226.225
-0.623426
-268.805
11.7759
-131.053
6.15398
-196.793
2.65552
-229.504
-0.193351
-268.612
8.69345
-47.4688
12.4943
-137.393
6.8717
-201.009
3.06837
-232.766
0.237092
-268.849
0.207299
44.0522
12.6298
-47.6043
12.5635
-143.085
7.60019
-205.541
3.61965
-236.148
0.647059
-269.496
-1.13876
90.9007
6.55802
50.124
14.5281
-49.5689
11.1592
-146.644
8.04346
-209.965
4.06429
-239.565
1.05305
-270.549
-0.535777
110.024
3.61793
93.8408
9.48435
55.1677
14.0654
-52.4751
10.308
-148.908
8.41094
-214.311
4.5503
-243.063
1.37446
-271.923
0.00627643
111.634
1.47955
112.163
4.27027
99.0549
12.306
56.9271
13.6531
-55.8202
10.4179
-150.915
8.90992
-218.671
4.97498
-246.663
1.61069
-273.534
0.531357
103.515
-0.0944839
113.208
1.76993
114.663
7.01739
104.344
13.7074
56.8728
13.8945
-59.2968
11.3176
-153.323
9.49838
-223.194
5.35462
-250.407
1.85187
-275.386
0.944046
91.0729
-1.22763
104.648
-0.0953843
115.073
2.98024
118.7
7.58043
110.47
15.3199
55.4474
14.9723
-62.9514
12.2772
-156.102
10.041
-227.881
5.71239
-254.268
1.95933
-277.345
1.43963
74.6721
-2.53549
92.3807
-1.58401
106.137
-0.119756
118.173
3.35436
122.926
8.80596
116.984
16.681
53.7387
15.788
-66.4623
12.974
-159.035
10.5627
-232.731
6.0047
-258.313
2.03503
-279.38
1.40316
57.3099
-3.6573
75.7939
-3.1071
93.9038
-2.64823
108.665
-0.178282
121.706
3.72474
128.007
10.1248
123.541
17.7223
51.8044
16.6837
-70.172
13.6699
-162.142
11.0583
-237.785
6.18515
-262.463
2.05356
-281.434
0.499647
37.8274
-4.66729
58.3198
-4.72512
77.412
-5.21619
96.4718
-3.04098
111.528
-0.306741
125.737
4.4786
133.654
11.3558
129.907
18.8097
49.6783
17.5571
-74.0592
14.6242
-165.708
11.517
-243.117
6.30567
-266.715
2.14979
-283.584
-5.41303
20.247
-6.50028
39.6604
-7.1561
60.7508
-7.54361
79.7394
-5.78209
99.2129
-3.76845
114.99
-0.183134
130.399
4.86421
140.145
12.29
136.427
20.1287
47.1067
18.5864
-78.0213
15.5065
-169.697
11.8397
-248.651
6.38123
-270.947
2.22061
-285.804
-13.7341
11.4597
-12.147
25.8938
-10.7257
43.23
-9.92558
63.1328
-8.712
82.6693
-7.1999
102.644
-4.13414
118.941
-0.568747
135.832
5.61273
146.822
13.4842
143.071
21.4847
44.2084
19.7274
-82.2422
16.3264
-174.184
12.0995
-254.369
6.40569
-275.132
2.35683
-288.161
-16.2071
3.2803
-17.1872
16.5
-15.7264
30.8945
-13.9846
47.289
-12.3744
66.7952
-10.6113
86.0807
-8.33078
106.841
-5.14851
123.52
-0.203423
141.648
5.83435
154.472
14.8837
149.672
22.626
41.3098
21.2015
-87.1174
17.3505
-179.435
12.3432
-260.306
6.44898
-279.224
2.42038
-290.582
-16.2932
-5.32495
-17.1649
3.25799
-17.9177
18.6913
-18.4237
35.3336
-17.1014
52.016
-15.0784
71.2623
-12.8876
90.6376
-9.74318
111.436
-5.17226
128.489
-0.85108
148.334
6.84391
162.512
15.8084
156.49
24.2471
38.2642
22.5594
-92.3262
18.0769
-185.169
12.3904
-266.248
6.4207
-283.224
2.49157
-293.073
-15.3632
-11.1194
-17.1662
-5.32366
-17.9301
3.27042
-18.5889
18.8566
-19.8525
38.0846
-19.7189
56.6565
-17.8883
76.2629
-14.5792
95.4736
-10.7584
117.022
-6.39483
134.033
-0.156113
155.334
6.92367
171.397
17.1095
163.628
25.8245
34.999
23.4639
-97.7133
18.6898
-191.468
12.5018
-272.329
6.44057
-287.173
2.46421
-295.537
-13.8649
-13.6925
-16.7612
-11.5244
-17.7443
-5.50952
-18.5336
3.21504
-19.0511
18.0552
-21.0404
39.4061
-22.011
60.7792
-20.1689
81.8526
-16.8112
101.526
-12.2037
122.831
-6.21693
140.094
-0.900196
163.158
8.04287
180.464
18.7617
170.69
26.853
31.61
25.3151
-104.339
19.3705
-198.337
12.4075
-278.296
6.35009
-291.059
2.47431
-298.012
-13.0833
-14.6675
-15.3148
-15.139
-17.3309
-11.9378
-18.2433
-5.79979
-19.4107
3.57457
-20.7849
17.7997
-22.9939
40.389
-24.5027
65.113
-22.8475
87.8889
-18.5234
107.846
-13.1188
129.733
-7.46174
146.655
0.0272593
171.173
8.3677
190.857
19.9662
177.577
28.9806
27.9445
26.1031
-111.071
19.5731
-205.502
12.3039
-284.25
6.27618
-294.861
2.52099
-300.533
-12.7054
-16.6151
-13.8514
-16.1309
-16.1349
-16.3349
-17.7881
-12.393
-19.1106
-6.0999
-20.8381
3.62785
-23.4309
18.2366
-25.4197
41.306
-26.8129
69.0784
-25.1487
94.5142
-20.6206
115.348
-14.563
136.834
-7.10145
153.784
-0.678952
180.22
9.46055
201.363
21.8568
184.701
30.2193
23.8283
26.2991
-117.797
19.678
-212.876
12.1506
-290.124
6.17241
-298.512
2.62082
-303.153
-11.9615
-18.959
-13.362
-17.1045
-14.3093
-17.9565
-16.9979
-17.1251
-18.4599
-13.0437
-20.0087
-6.92939
-23.2966
3.49358
-25.4077
18.2247
-27.0508
41.544
-28.8612
72.7908
-27.4036
101.297
-22.3643
123.149
-15.2805
145.013
-8.1698
161.275
0.225702
189.455
10.2369
212.983
23.7761
191.144
30.8887
19.2386
24.8231
-122.942
19.3348
-220.061
11.9585
-295.91
6.11922
-302.011
2.67251
-305.826
-11.2455
-19.4417
-12.6711
-19.6499
-13.7065
-17.7072
-15.2826
-19.6718
-17.6586
-17.9265
-19.2927
-13.7596
-21.5355
-8.69052
-24.9233
3.00916
-26.8531
18.027
-28.4406
41.1234
-29.9466
75.3338
-29.3097
108.243
-24.1066
131.975
-16.5956
153.439
-7.81822
169.319
-0.0061475
199.698
11.5644
225.195
25.4
196.633
30.812
13.2497
20.979
-124.586
18.5316
-226.634
11.7662
-301.557
6.06444
-305.403
2.76255
-308.588
-10.7989
-19.6327
-11.8184
-20.2944
-13.0812
-20.2752
-14.15
-18.8398
-16.1629
-21.1674
-18.3684
-18.8508
-20.0288
-15.2663
-23.6227
-9.99112
-25.9847
2.14075
-28.378
17.9644
-29.0812
40.258
-30.6017
76.6259
-30.6627
114.799
-25.6299
141.01
-17.0334
162.654
-8.46032
177.773
0.636776
210.625
12.4558
238.139
28.1208
199.324
27.7264
6.50235
18.858
-124.913
17.8598
-232.727
11.5517
-307.044
6.0453
-308.685
2.81221
-311.401
-10.2047
-19.2634
-11.3096
-20.1415
-12.1686
-21.207
-13.5585
-20.8667
-14.567
-20.4358
-16.9587
-22.5772
-19.2572
-19.6224
-21.4512
-17.4378
-24.9067
-11.0692
-27.2268
0.989552
-29.1554
18.0386
-29.8237
39.4799
-31.1008
77.064
-31.7579
120.927
-26.7601
150.736
-18.2264
172.42
-8.31158
186.721
1.00427
222.077
13.9594
252.3
30.6101
196.44
26.148
-0.787702
18.1903
-125.243
17.2738
-238.45
11.3609
-312.36
6.01444
-311.888
2.88731
-314.288
-9.58076
-17.9611
-10.725
-19.8479
-11.6331
-20.6771
-12.6473
-22.1182
-13.937
-21.4967
-15.1422
-22.2522
-17.721
-24.1134
-19.941
-21.1325
-22.9431
-19.4015
-26.0462
-12.2498
-27.8035
-0.362348
-30.0867
18.3016
-31.3245
39.7036
-31.9325
77.2385
-32.8305
126.997
-28.3976
160.908
-18.5745
182.683
-8.39334
196.119
1.50348
234.533
16.1055
266.805
33.0854
189.503
25.4361
-8.03346
22.7618
-130.731
17.1359
-244.225
11.2031
-317.549
5.98311
-314.983
2.97809
-317.266
-8.96984
-16.3924
-10.1623
-18.5238
-11.0838
-20.3972
-12.0689
-21.2555
-13.0828
-22.9724
-14.4183
-22.2206
-15.7745
-24.1987
-18.5828
-25.4715
-20.6625
-23.4131
-24.2637
-21.184
-26.6408
-13.4125
-28.6738
-1.77523
-31.4918
18.4689
-33.0263
40.7975
-33.3888
77.7967
-34.367
132.967
-29.2968
171.63
-19.2923
193.582
-8.3556
205.978
2.4009
248.238
18.5592
281.331
34.3848
180.554
30.1512
-15.4229
26.1393
-139.735
17.3602
-250.382
10.9958
-322.561
5.97818
-317.984
3.10923
-320.375
-8.32333
-14.1317
-9.51459
-17.0402
-10.5533
-19.0543
-11.4833
-20.9828
-12.4405
-21.8978
-13.5508
-23.8399
-14.8902
-23.1049
-16.6177
-26.1639
-19.3049
-26.8291
-21.4928
-26.1839
-25.6441
-22.1808
-27.0922
-14.9941
-29.9483
-3.31872
-32.8347
18.2773
-34.8891
42.2978
-34.6536
78.0833
-35.1392
138.809
-30.6484
182.986
-19.9685
205.195
-8.12763
216.507
3.01755
263.779
21.8125
293.903
35.6169
175.088
33.4809
-22.7645
27.8923
-150.267
17.4786
-256.865
10.8859
-327.469
6.01416
-320.889
3.24408
-323.619
-7.70501
-13.5173
-8.87137
-14.7749
-9.94928
-17.6441
-10.9577
-19.5799
-11.8373
-21.5859
-12.8604
-22.5883
-13.978
-24.7521
-15.5033
-24.2193
-17.4058
-28.063
-20.0815
-28.2405
-22.903
-28.9249
-26.2001
-23.0729
-27.976
-16.9664
-31.2443
-4.90903
-34.2348
17.623
-36.1336
43.7778
-35.2698
78.2139
-35.632
143.792
-31.6753
194.693
-20.311
217.378
-8.00122
227.525
5.17352
280.418
24.6875
304.833
36.7591
171.81
35.2012
-30.0734
28.6795
-161.468
17.6425
-263.621
10.7078
-332.163
6.06889
-323.713
3.37625
-326.996
-7.17718
-13.1903
-8.22747
-14.1612
-9.25813
-15.466
-10.3776
-18.2243
-11.3244
-20.0928
-12.2389
-22.2074
-13.2334
-23.3329
-14.4912
-25.7642
-16.1106
-25.5146
-18.2312
-29.9132
-20.8464
-30.2971
-24.1643
-30.9608
-26.5242
-24.5246
-29.278
-18.9327
-32.5944
-6.54938
-35.4162
16.9055
-36.7016
45.2096
-35.3595
77.9414
-35.6396
147.757
-32.1941
206.576
-20.7064
230.083
-7.40731
240.106
7.06854
298.037
27.6574
313.934
38.1525
168.859
36.3199
-37.7138
29.2595
-173.085
17.7079
-270.621
10.5866
-336.68
6.1307
-326.468
3.51649
-330.512
-6.71318
-13.2703
-7.64583
-13.7719
-8.51043
-14.9089
-9.65004
-16.1936
-10.7286
-18.8201
-11.7478
-20.5839
-12.584
-22.8568
-13.7006
-24.1234
-14.9507
-26.9241
-16.6831
-27.0627
-19.0196
-31.7401
-21.7174
-32.7439
-24.9242
-32.5608
-27.0873
-26.7153
-30.2493
-21.2779
-34.082
-7.88361
-35.7887
15.9926
-36.6415
46.4916
-35.3022
77.604
-35.6986
151.261
-32.9776
218.847
-21.0468
243.723
-7.01883
254.193
9.71081
315.984
30.0598
322.027
39.7789
165.4
37.499
-45.9533
29.6725
-185.049
17.7585
-277.793
10.4046
-340.954
6.23153
-329.183
3.62236
-334.134
-6.11947
-12.7977
-7.20835
-13.7078
-7.91449
-14.3679
-8.84271
-15.7163
-9.95944
-16.9628
-11.0878
-19.4801
-12.0963
-21.0716
-12.9852
-23.5723
-14.0842
-24.9899
-15.4703
-28.1368
-17.3041
-28.7781
-19.7349
-33.7226
-22.4497
-35.2184
-25.4912
-34.157
-27.4822
-29.4823
-31.4558
-23.9041
-35.1587
-8.51355
-35.3897
14.7408
-36.4122
47.6016
-35.7744
77.6798
-36.3527
154.636
-33.7542
231.555
-21.3123
258.016
-6.11939
270.024
11.4806
334.563
32.4287
329.377
41.6734
161.226
38.3155
-54.5963
29.8286
-197.119
17.7039
-285.092
10.2837
-345.006
6.31617
-331.877
3.72236
-337.857
-5.46506
-11.9092
-6.6351
-13.371
-7.5103
-14.112
-8.22757
-14.983
-9.17577
-16.4999
-10.2217
-17.8288
-11.4206
-20.1559
-12.462
-21.5947
-13.3053
-24.3512
-14.5215
-25.9387
-15.9975
-29.4434
-17.9336
-30.5794
-20.4325
-35.7399
-23.1749
-37.5346
-26.0645
-35.5747
-27.8882
-33.0499
-32.7059
-26.3569
-35.2841
-8.61922
-34.6772
13.0058
-37.2485
49.0757
-37.5805
78.9077
-37.5838
158.466
-34.4993
244.742
-21.5661
273.463
-5.47632
286.981
13.4949
353.497
34.5494
336.501
43.4072
156.134
38.4872
-63.2549
29.6449
-209.06
17.6344
-292.443
10.088
-348.778
6.41156
-334.566
3.82201
-341.679
-4.78223
-11.1461
-6.00107
-12.5433
-6.96776
-13.9135
-7.81545
-14.5241
-8.54628
-15.6125
-9.44234
-17.2793
-10.522
-18.7273
-11.7629
-20.855
-12.7479
-22.1521
-13.6368
-25.2359
-14.9804
-26.9559
-16.5353
-30.8417
-18.5072
-32.5047
-21.0664
-37.8484
-23.907
-39.6921
-26.2431
-37.2198
-28.6923
-37.0635
-33.5695
-28.0714
-34.5854
-8.71102
-35.1609
10.9182
-38.8487
50.3438
-39.4531
80.777
-38.8918
162.858
-35.3948
258.57
-21.8527
289.839
-4.59264
305.068
14.947
373.099
36.7157
343.193
44.61
150.011
37.8756
-71.4855
29.1569
-220.583
17.3975
-299.753
9.92011
-352.287
6.53462
-337.278
3.87379
-345.553
-4.02785
-10.3716
-5.34058
-11.8066
-6.39061
-13.1204
-7.26152
-14.4674
-8.12258
-14.9478
-8.81285
-16.242
-9.72399
-18.0774
-10.8165
-19.6737
-12.0506
-21.5524
-12.9894
-22.7995
-14.0087
-26.2076
-15.4241
-28.0672
-17.0538
-32.295
-19.0891
-34.482
-21.6731
-40.0823
-24.3831
-41.5521
-26.5266
-39.3855
-29.6751
-40.958
-33.9094
-28.7474
-33.82
-10.0519
-36.9499
9.01937
-39.5073
50.3979
-40.9496
82.8348
-39.9849
167.449
-36.1885
272.906
-22.0861
307.333
-3.99672
324.012
16.4618
393.353
38.7137
349.089
45.0869
142.8
36.7799
-79.1085
28.2529
-231.438
17.0766
-306.909
9.70357
-355.456
6.62365
-340.028
3.83324
-349.386
-3.31062
-8.91859
-4.48231
-11.2298
-5.8301
-12.3671
-6.67079
-13.7111
-7.59071
-14.9993
-8.35432
-15.4063
-9.05785
-16.9081
-9.97297
-18.9209
-11.0761
-20.6482
-12.2952
-22.2466
-13.2674
-23.5408
-14.3459
-27.2859
-15.8696
-29.2514
-17.5445
-33.8396
-19.6619
-36.4932
-22.2058
-42.2595
-24.7317
-43.3471
-26.7896
-42.271
-30.7259
-44.1414
-33.7274
-28.84
-34.5231
-12.4787
-37.6073
7.11939
-40.2535
49.7019
-42.2959
85.1458
-40.7143
171.974
-36.7585
287.579
-22.3515
325.687
-3.44414
343.918
17.5566
414.51
40.4948
353.681
44.7045
134.875
35.2427
-86.0983
27.1184
-241.48
16.6086
-313.814
9.50054
-358.333
6.69836
-342.893
3.53209
-352.918
-3.27304
-7.71877
-3.42038
-9.98052
-5.26806
-11.7919
-6.10241
-12.9355
-7.00882
-14.293
-7.81245
-15.5412
-8.57534
-15.8888
-9.24287
-17.6382
-10.2134
-19.7836
-11.321
-21.6224
-12.5106
-23.0033
-13.5016
-24.3851
-14.7047
-28.4508
-16.2863
-30.5096
-18.0345
-35.467
-20.1508
-38.5482
-22.6257
-44.3655
-24.9845
-45.1522
-27.1274
-45.8695
-31.3668
-46.502
-33.5801
-29.7831
-34.8138
-15.2723
-38.2979
5.16387
-41.349
48.7549
-43.662
88.0935
-40.9234
176.139
-37.0208
302.248
-22.6293
344.873
-3.30455
364.779
18.4332
436.571
41.5661
356.82
43.6755
126.442
33.7643
-92.7441
25.7851
-250.656
16.0916
-320.405
9.22822
-360.862
6.48175
-345.843
3.10022
-356.018
-3.94313
-8.0672
-2.80792
-8.33123
-4.35634
-10.8922
-5.55111
-12.3432
-6.48043
-13.4639
-7.24467
-14.8608
-8.05111
-16.0654
-8.72474
-16.4069
-9.45595
-18.3956
-10.4724
-20.6323
-11.5061
-22.6268
-12.7239
-23.781
-13.7372
-25.3526
-15.0523
-29.6848
-16.7165
-31.8275
-18.4467
-37.1712
-20.5832
-40.5906
-22.9047
-46.4453
-25.2075
-47.0721
-27.5777
-49.6586
-31.7651
-48.317
-33.3971
-31.1997
-35.3509
-18.2193
-39.2056
3.02047
-42.7263
47.8192
-44.5771
91.7472
-40.709
179.827
-36.9443
316.563
-23.018
364.586
-3.5276
386.74
19.1132
459.024
41.8296
358.666
42.5822
117.625
32.53
-99.489
24.4303
-258.995
15.4308
-326.608
8.9297
-363.31
6.10378
-348.847
2.82949
-358.848
-4.6882
-9.87306
-3.31527
-7.55985
-3.2784
-9.40917
-4.94498
-11.4984
-6.04539
-12.7782
-6.68923
-14.0193
-7.51581
-15.3961
-8.20196
-16.5882
-8.8336
-17.0293
-9.60909
-19.259
-10.6492
-21.4891
-11.7492
-23.6015
-12.8655
-24.6528
-13.9728
-26.432
-15.4272
-30.9742
-17.0524
-33.2218
-18.8235
-38.9309
-20.9131
-42.5822
-23.1524
-48.5004
-25.3685
-49.2814
-28.1406
-53.2831
-31.8754
-49.8387
-33.335
-33.2157
-35.8801
-21.5448
-40.4728
0.766894
-43.6489
46.891
-44.904
95.9422
-40.3559
183.239
-36.9118
330.457
-23.7192
384.778
-3.86817
409.721
19.7155
481.138
41.6887
359.559
41.3348
108.82
31.7255
-106.784
23.0291
-266.593
14.724
-332.402
8.52239
-365.729
5.79355
-351.811
2.56973
-361.417
-4.92375
-10.7131
-4.54404
-8.64429
-2.89837
-7.93988
-4.01265
-10.3415
-5.54146
-12.0023
-6.23338
-13.2341
-7.02066
-14.5145
-7.64067
-15.9574
-8.36186
-17.0599
-8.9041
-17.7343
-9.81539
-20.0928
-10.8752
-22.3632
-11.9017
-24.5653
-13.0364
-25.5892
-14.2094
-27.6498
-15.7651
-32.2615
-17.3856
-34.6597
-19.0987
-40.7452
-21.1997
-44.5349
-23.2985
-50.5703
-25.5971
-51.8249
-28.5557
-56.6028
-31.9646
-51.2091
-33.0941
-36.0017
-36.7323
-25.2853
-41.577
-1.30505
-43.8716
45.8586
-44.7433
100.33
-40.4167
186.744
-37.5441
344.282
-24.8009
405.71
-4.32347
433.76
20.4311
502.396
40.9499
359.944
39.9703
100.575
31.0578
-114.813
21.7016
-273.571
13.9133
-337.793
8.05037
-367.986
5.48188
-354.723
2.31604
-363.733
-4.98696
-10.5926
-5.06329
-10.1939
-3.84003
-7.70263
-3.23762
-8.71491
-4.67845
-11.2045
-5.86521
-12.3705
-6.58989
-13.6648
-7.07802
-15.0771
-7.90243
-16.4168
-8.41359
-17.5504
-9.12339
-18.4263
-9.9497
-21.0183
-11.0414
-23.2234
-12.0815
-25.5202
-13.2129
-26.5857
-14.4216
-28.9933
-16.1312
-33.5159
-17.6167
-36.1417
-19.3769
-42.5681
-21.3587
-46.4747
-23.5108
-52.6566
-25.784
-54.5966
-28.9064
-59.6609
-31.9309
-52.3723
-33.0406
-39.6934
-37.5131
-29.3492
-42.3222
-2.85443
-43.1678
44.2832
-45.004
104.917
-41.9136
191.113
-39.1561
358.637
-26.2484
427.635
-4.73323
458.925
21.2366
522.109
39.4991
360.415
38.4048
93.228
30.3835
-123.495
20.3681
-280.026
13.0234
-342.766
7.51279
-370.017
5.07152
-357.478
2.11783
-365.851
-5.00585
-10.2197
-5.18004
-10.4758
-4.84729
-9.18663
-3.26843
-7.67182
-3.75995
-9.63341
-5.39836
-11.6714
-6.15582
-12.8046
-6.64449
-14.0984
-7.3876
-15.592
-7.91858
-16.9118
-8.6175
-18.0563
-9.18644
-19.1896
-10.1274
-21.9323
-11.2016
-24.1033
-12.2523
-26.4808
-13.3701
-27.6372
-14.6816
-30.4429
-16.3728
-34.7598
-17.8465
-37.6722
-19.5551
-44.3717
-21.5493
-48.4362
-23.5978
-54.8428
-25.9871
-57.5159
-29.1581
-62.4337
-31.9068
-53.5061
-32.9154
-44.291
-38.3244
-33.347
-41.9149
-4.10734
-42.7281
42.0073
-46.6104
109.614
-44.8526
196.81
-41.0268
373.415
-28.0477
450.95
-5.29362
485.455
22.1112
539.497
37.3343
361.486
36.6777
86.9337
29.4568
-132.584
18.9858
-285.988
12.1011
-347.354
6.90219
-371.847
4.68279
-360.043
1.81892
-367.67
-4.99917
-9.65848
-5.21492
-10.1848
-5.1788
-10.1443
-4.32406
-8.131
-3.15851
-8.27326
-4.42425
-10.6075
-5.70563
-12.1215
-6.28675
-13.1623
-6.87292
-14.613
-7.42806
-16.0825
-8.14414
-17.3852
-8.68033
-18.5624
-9.37021
-19.9467
-10.2472
-22.8867
-11.3832
-24.9724
-12.3897
-27.4612
-13.5447
-28.7742
-14.8597
-31.9561
-16.5996
-36.0067
-17.976
-39.2512
-19.7512
-46.1699
-21.6024
-50.4315
-23.7635
-57.0664
-26.1689
-60.5052
-29.27
-65.0704
-31.7155
-54.706
-33.1284
-49.487
-38.6819
-36.58
-41.0753
-5.76015
-43.9821
39.379
-49.1126
113.874
-47.7714
203.554
-42.7572
388.125
-30.2797
475.936
-5.9367
513.503
22.8592
553.972
34.6924
363.471
34.5651
81.8255
28.277
-141.875
17.567
-291.454
11.1068
-351.559
6.22485
-373.39
4.14606
-362.37
1.55043
-369.221
-4.95551
-9.07309
-5.22469
-9.6487
-5.24648
-10.1172
-5.07911
-9.38927
-3.62131
-7.6682
-3.56774
-9.12978
-5.13763
-11.1755
-5.94603
-12.4623
-6.37878
-13.6564
-6.97665
-15.0644
-7.61995
-16.6067
-8.21291
-17.8526
-8.84362
-19.089
-9.43307
-20.7609
-10.4554
-23.8144
-11.4983
-25.8638
-12.5474
-28.4585
-13.6486
-29.9852
-15.0535
-33.5022
-16.7281
-37.2546
-18.1156
-40.8868
-19.8382
-47.934
-21.6812
-52.5139
-23.8473
-59.3881
-26.35
-63.4252
-29.2112
-67.5748
-31.5405
-56.2939
-33.4588
-54.7101
-38.465
-39.1904
-41.0899
-8.65243
-45.8196
36.086
-50.9002
117.003
-50.1509
210.948
-44.4835
402.329
-32.9686
502.968
-6.53679
542.899
23.5475
565.117
31.665
366.371
32.1565
77.946
26.9671
-151.275
16.0302
-296.378
10.0543
-355.388
5.51367
-374.757
3.5949
-364.415
1.28965
-370.51
-4.89484
-8.45396
-5.19463
-9.10315
-5.27891
-9.61627
-5.30471
-9.89156
-4.65492
-8.35566
-3.20408
-8.03185
-4.26431
-10.0031
-5.52698
-11.5946
-5.9953
-12.8457
-6.49086
-14.1422
-7.15026
-15.5341
-7.71931
-17.1003
-8.35249
-18.3438
-8.89201
-19.6301
-9.61178
-21.6046
-10.5892
-24.7235
-11.6462
-26.765
-12.6465
-29.4607
-13.7661
-31.2726
-15.1923
-35.0379
-16.8201
-38.5502
-18.1557
-42.5694
-19.9317
-49.6835
-21.6956
-54.6655
-23.9662
-61.7718
-26.3684
-66.268
-29.1347
-69.9805
-31.2456
-58.5071
-33.7787
-59.3964
-38.0214
-42.2588
-41.8277
-12.6443
-47.2251
32.4109
-52.0149
118.867
-52.3094
218.774
-46.754
416.114
-35.8801
532.311
-6.8897
573.336
24.2033
572.579
28.6145
369.913
29.5516
75.3615
25.5195
-160.764
14.4334
-300.757
8.98039
-358.855
4.71736
-375.88
3.03256
-366.158
1.01106
-371.521
-4.85063
-7.90064
-5.14969
-8.49889
-5.28171
-9.10035
-5.36403
-9.55694
-5.27812
-9.26836
-3.88464
-7.6751
-3.43227
-8.86389
-4.82548
-10.7046
-5.61639
-11.9735
-6.07979
-13.2568
-6.65734
-14.6352
-7.26811
-15.9853
-7.82891
-17.6239
-8.44076
-18.795
-9.01281
-20.229
-9.73857
-22.4552
-10.7372
-25.6326
-11.7557
-27.6557
-12.7444
-30.4824
-13.8376
-32.6274
-15.3284
-36.5296
-16.8224
-39.8834
-18.2053
-44.2958
-19.9733
-51.4058
-21.7498
-56.882
-23.945
-64.1951
-26.3926
-69.0102
-28.9274
-72.2986
-30.92
-61.3658
-33.8289
-63.589
-37.8506
-46.2359
-42.7248
-17.1446
-47.8594
28.2554
-53.0965
119.654
-55.0611
227.081
-49.695
429.929
-38.7966
564.218
-6.86338
604.403
25.1287
576.065
25.8194
373.645
27.0607
73.8203
23.7493
-170.08
12.8314
-304.608
7.79363
-361.931
3.91441
-376.761
2.43915
-367.586
0.774882
-372.296
-4.73875
-7.36639
-5.10911
-7.94122
-5.26474
-8.51587
-5.40754
-9.05684
-5.43909
-9.39597
-4.84153
-8.31148
-3.19908
-7.90829
-4.07022
-9.61915
-5.26026
-11.0607
-5.68148
-12.3718
-6.2274
-13.6867
-6.79982
-15.1034
-7.3513
-16.4629
-7.95522
-18.1094
-8.51548
-19.2923
-9.10828
-20.8593
-9.8511
-23.3413
-10.8804
-26.5079
-11.8505
-28.5496
-12.7819
-31.5381
-13.9534
-34.0023
-15.364
-37.9881
-16.8066
-41.282
-18.2371
-46.032
-20.0261
-53.1295
-21.6828
-59.1442
-23.9587
-66.629
-26.2875
-71.6501
-28.6614
-74.5573
-30.569
-64.6257
-33.773
-67.6666
-37.781
-51.1797
-43.2632
-21.7408
-48.0749
23.2338
-54.9728
119.565
-58.6259
236.012
-53.1626
444.295
-41.173
598.527
-6.34403
635.875
26.497
575.387
23.8865
376.819
24.8763
72.6933
21.7313
-178.98
11.1466
-307.961
6.61173
-364.629
3.0796
-377.402
1.8712
-368.682
0.574344
-372.871
-4.64181
-6.73971
-5.04039
-7.43511
-5.21581
-7.99015
-5.38698
-8.53643
-5.46337
-9.03257
-5.28628
-8.95122
-3.84687
-7.66369
-3.31426
-8.66425
-4.69004
-10.1894
-5.32006
-11.4221
-5.81436
-12.7848
-6.37875
-14.1078
-6.91762
-15.5371
-7.47032
-16.9478
-8.01181
-18.6131
-8.602
-19.7986
-9.18483
-21.5256
-9.99027
-24.2314
-10.9882
-27.3702
-11.9022
-29.4292
-12.8523
-32.6393
-13.9922
-35.374
-15.3809
-39.4138
-16.7789
-42.7402
-18.2701
-47.788
-19.9538
-54.8585
-21.6732
-61.4297
-23.8732
-69.0434
-26.1255
-74.1859
-28.3215
-76.8048
-30.2003
-68.1984
-33.5119
-71.9357
-37.8322
-56.6107
-43.2991
-26.5166
-48.4261
16.687
-57.9315
118.871
-62.6221
245.472
-56.2072
459.329
-42.7559
634.939
-5.34841
667.721
28.2707
571.003
22.7764
378.919
23.2949
71.1297
19.689
-187.522
9.49251
-310.842
5.39016
-366.939
2.24587
-377.777
1.34242
-369.45
0.341284
-373.212
-4.51779
-5.86304
-4.96997
-6.81013
-5.21766
-7.43326
-5.39951
-7.97762
-5.44339
-8.55641
-5.30777
-9.01108
-4.56144
-8.23665
-3.18032
-7.79763
-3.99514
-9.35915
-5.0187
-10.4907
-5.39626
-11.8402
-6.01726
-13.1463
-6.51724
-14.5082
-7.03086
-15.9766
-7.53612
-17.4235
-8.09424
-19.1208
-8.6547
-20.3287
-9.26883
-22.247
-10.1101
-25.1095
-11.0711
-28.2013
-11.9746
-30.3069
-12.8661
-33.7654
-14.0527
-36.7023
-15.3708
-40.8219
-16.7613
-44.2489
-18.2131
-49.5287
-19.9142
-56.6175
-21.5783
-63.7246
-23.7314
-71.4375
-25.8733
-76.6341
-27.9711
-79.034
-29.7362
-71.9742
-33.2286
-76.5392
-37.8059
-62.1039
-43.0686
-31.8741
-49.3027
8.05817
-61.7031
117.952
-65.8428
255.107
-58.2643
474.838
-43.3323
672.923
-3.94322
699.935
30.4995
563.28
22.7179
379.496
22.1578
68.6609
18.2392
-196.269
7.76967
-313.221
4.18366
-368.877
1.42287
-377.857
0.794619
-369.904
0.20798
-373.42
-4.45721
-4.87869
-4.89249
-5.94052
-5.176
-6.8518
-5.38579
-7.44697
-5.41152
-8.00949
-5.23624
-8.62794
-4.74847
-8.82404
-3.70665
-7.71032
-3.39888
-8.39389
-4.58937
-9.78848
-5.10984
-10.7772
-5.60996
-12.2475
-6.16907
-13.4945
-6.6386
-14.9005
-7.12648
-16.3862
-7.59687
-17.9209
-8.15735
-19.6182
-8.70638
-20.8912
-9.35058
-23.0065
-10.2201
-25.9605
-11.1708
-29.0052
-11.9616
-31.2114
-12.9296
-34.8884
-14.0841
-37.989
-15.3665
-42.2168
-16.6702
-45.7918
-18.1803
-51.2626
-19.7821
-58.4137
-21.4482
-66.0078
-23.5255
-73.7853
-25.5912
-79.0139
-27.497
-81.2731
-29.2486
-75.9542
-32.8897
-81.4554
-37.7027
-67.4698
-42.6554
-38.5213
-51.2105
-2.4344
-64.6942
116.803
-67.5624
264.405
-58.988
490.493
-42.8437
711.824
-2.29457
732.729
33.3127
552.685
24.0478
377.606
22.6032
64.2969
17.0533
-205.553
5.95774
-314.995
2.96794
-370.422
0.622353
-377.685
0.344233
-370.04
0.0119266
-373.432
-4.41175
-4.30424
-4.88348
-4.8877
-5.15247
-5.96405
-5.35824
-6.87934
-5.36096
-7.49754
-5.15601
-8.08972
-4.73585
-8.64056
-4.16391
-8.36678
-3.36529
-7.74391
-4.03605
-8.94721
-4.84417
-10.0542
-5.21428
-11.1728
-5.82173
-12.5949
-6.30614
-13.827
-6.74991
-15.277
-7.18367
-16.7994
-7.68948
-18.3888
-8.18886
-20.1357
-8.76748
-21.4743
-9.4485
-23.7781
-10.3548
-26.7764
-11.1772
-29.7896
-12.0092
-32.1318
-12.9796
-35.9929
-14.1261
-39.2293
-15.2906
-43.5964
-16.6238
-47.3484
-18.0573
-52.9875
-19.6256
-60.2362
-21.2591
-68.2742
-23.2828
-76.0937
-25.18
-81.3309
-26.9419
-83.5798
-28.7181
-80.1259
-32.5516
-86.6065
-37.335
-72.7902
-42.3915
-47.3403
-53.3185
-13.8102
-66.1421
115.383
-68.3102
273.728
-58.1083
505.758
-41.7435
751.273
-0.474575
766.516
36.1153
540.618
26.5285
373.681
24.197
57.1532
16.1396
-215.735
4.09397
-316.121
1.72563
-371.525
-0.138783
-377.202
-0.142147
-369.886
-0.102589
-373.329
-4.3362
-4.0007
-4.93506
-4.25267
-5.19795
-4.84221
-5.23995
-6.08235
-5.28555
-6.95475
-5.08631
-7.56724
-4.7235
-8.10207
-4.28548
-8.519
-3.76894
-7.96314
-3.59756
-8.18239
-4.49589
-9.29549
-4.93123
-10.3372
-5.46189
-11.5327
-5.99246
-12.9086
-6.45102
-14.1259
-6.83511
-15.6256
-7.28617
-17.2027
-7.70925
-18.8684
-8.26715
-20.6361
-8.82223
-22.1006
-9.5534
-24.5795
-10.4015
-27.5521
-11.2513
-30.5475
-12.032
-33.0794
-13.0604
-37.0586
-14.1016
-40.4184
-15.2646
-44.9556
-16.4949
-48.9107
-17.9111
-54.702
-19.4033
-62.092
-21.0543
-70.5028
-22.9326
-78.3411
-24.6941
-83.5788
-26.3024
-85.9955
-28.1959
-84.4817
-32.0362
-91.9052
-36.8463
-78.3355
-42.1762
-58.4825
-54.6666
-25.2856
-65.8858
112.959
-67.1264
282.746
-55.8768
519.891
-40.4828
791.281
1.53412
801.097
38.9777
528.168
30.2188
367.659
27.285
46.0078
16.5377
-228.178
2.17287
-316.568
0.48214
-372.146
-0.896054
-376.448
-0.530621
-369.458
-0.257723
-373.071
-4.22291
-3.84439
-4.96531
-3.97045
-5.23597
-4.21465
-5.11767
-4.9645
-5.05488
-6.31302
-4.9974
-7.04366
-4.70981
-7.58093
-4.40041
-7.98713
-3.96217
-8.32576
-3.66727
-7.89342
-4.0527
-8.62558
-4.71987
-9.50685
-5.11832
-10.6808
-5.70201
-11.8231
-6.16575
-13.1938
-6.57239
-14.3886
-6.93989
-15.9719
-7.33108
-17.5809
-7.80047
-19.335
-8.30662
-21.1517
-8.89875
-22.7552
-9.63991
-25.3411
-10.4839
-28.3195
-11.2805
-31.299
-12.1127
-34.0271
-13.0848
-38.0754
-14.1088
-41.5742
-15.1752
-46.2753
-16.3631
-50.4587
-17.6884
-56.417
-19.1899
-63.9563
-20.7483
-72.6871
-22.5078
-80.5275
-24.1043
-85.7769
-25.6418
-88.5496
-27.551
-88.9669
-31.4661
-97.2854
-36.078
-84.4338
-41.9302
-71.2189
-54.8772
-36.2942
-64.4966
110.329
-64.4722
291.341
-53.0848
532.493
-39.0238
831.839
3.84568
836.229
41.5206
516.867
34.2669
360.677
30.6735
31.8721
16.3502
-242.356
0.253813
-316.34
-0.832186
-372.21
-1.57918
-375.399
-0.951288
-368.764
-0.364682
-372.707
-4.09116
-3.59706
-4.92066
-3.88903
-5.2818
-3.92462
-5.17231
-4.16
-4.61015
-5.40923
-4.81834
-6.49208
-4.69239
-7.06109
-4.48433
-7.49701
-4.10114
-7.84817
-3.89391
-8.09912
-3.72732
-8.2188
-4.42581
-8.91964
-4.84552
-9.77965
-5.36894
-11.0139
-5.87458
-12.1143
-6.3287
-13.4375
-6.70988
-14.6186
-7.03125
-16.2717
-7.41175
-17.9696
-7.8553
-19.7864
-8.38218
-21.6683
-8.97984
-23.4153
-9.70385
-26.1211
-10.5405
-29.0595
-11.3623
-32.0494
-12.1585
-34.9534
-13.1281
-39.0561
-14.0701
-42.6793
-15.0812
-47.5573
-16.1631
-51.9839
-17.4756
-58.1312
-18.8704
-65.8342
-20.3825
-74.8123
-21.9994
-82.6323
-23.4791
-87.9396
-24.8611
-91.2394
-26.8996
-93.5334
-30.6548
-102.709
-35.143
-91.221
-41.4445
-84.6516
-53.8501
-46.9407
-61.885
107.742
-60.9342
299.191
-50.2492
543.718
-37.7626
873.447
6.61225
871.138
43.1796
507.954
37.7873
353.563
32.5271
15.6952
13.9654
-256.067
-1.71538
-315.457
-2.07397
-371.715
-2.29947
-374.051
-1.28822
-367.841
-0.49506
-372.212
-3.92226
-3.33654
-4.83817
-3.67955
-5.29152
-3.87931
-5.27864
-3.81829
-4.48993
-4.28022
-4.40446
-5.82312
-4.66639
-6.51808
-4.53616
-7.00926
-4.17362
-7.42453
-3.937
-7.80509
-3.88035
-7.94609
-3.99514
-8.64948
-4.56561
-9.19955
-5.04485
-10.1037
-5.56026
-11.3282
-6.06439
-12.3786
-6.50766
-13.6397
-6.82623
-14.8236
-7.09695
-16.5865
-7.50581
-18.3191
-7.90937
-20.2592
-8.44501
-22.2031
-9.02857
-24.0905
-9.78881
-26.8729
-10.6075
-29.8144
-11.4119
-32.796
-12.221
-35.8604
-13.1283
-39.998
-14.0119
-43.7485
-14.9454
-48.775
-15.9752
-53.4844
-17.163
-59.8387
-18.5267
-67.69
-19.9401
-76.8717
-21.4468
-84.6646
-22.7151
-90.0856
-24.0649
-94.0742
-26.0745
-98.1137
-29.7111
-108.14
-34.0097
-98.6558
-40.5145
-97.9872
-51.7392
-57.0865
-58.1311
104.939
-56.5084
305.45
-49.1036
555.059
-36.0215
916.081
9.90122
904.416
43.3956
502.346
39.9672
346.123
32.0959
-2.43528
9.60595
-267.389
-3.61055
-313.92
-3.34842
-370.666
-2.89841
-372.441
-1.66968
-366.666
-0.60539
-371.606
-3.74392
-3.09414
-4.70298
-3.47173
-5.27296
-3.69812
-5.34692
-3.81103
-4.67923
-3.62899
-3.93803
-4.74665
-4.46935
-6.02016
-4.5559
-6.49834
-4.28382
-6.89906
-4.01415
-7.34737
-3.90304
-7.7824
-3.87293
-8.06831
-4.29214
-8.92295
-4.78552
-9.45888
-5.26099
-10.403
-5.75157
-11.641
-6.23118
-12.6551
-6.65536
-13.8106
-6.87107
-15.0495
-7.19507
-16.8972
-7.54285
-18.6857
-7.97377
-20.7304
-8.48582
-22.7458
-9.11656
-24.7628
-9.84881
-27.6315
-10.662
-30.5643
-11.4764
-33.5407
-12.2519
-36.7368
-13.0958
-40.9142
-13.9225
-44.7714
-14.8065
-49.9437
-15.7001
-54.9473
-16.8306
-61.5348
-18.0945
-69.5356
-19.4594
-78.8591
-20.7726
-86.6071
-21.9228
-92.2276
-23.1384
-97.0103
-25.1641
-102.661
-28.604
-113.546
-32.599
-106.571
-39.1031
-110.623
-48.9237
-66.2939
-53.0398
101.47
-53.1943
309.54
-48.2493
567.287
-33.0269
959.009
13.5795
934.232
41.7897
500.523
40.8349
337.384
28.3786
-21.208
4.69553
-275.695
-5.50568
-311.763
-4.52291
-369.042
-3.58365
-370.527
-1.96927
-365.302
-0.718325
-370.888
-3.574
-2.85051
-4.54671
-3.25042
-5.21971
-3.52497
-5.3712
-3.67384
-5.00076
-3.4895
-3.89305
-3.67396
-3.91681
-5.29918
-4.45773
-6.11833
-4.3374
-6.44476
-4.15351
-6.7597
-3.99417
-7.25624
-3.95236
-7.70296
-4.01788
-8.34256
-4.54464
-9.16383
-4.98287
-9.73701
-5.4482
-10.7064
-5.89262
-11.9796
-6.32288
-12.9876
-6.71508
-13.9666
-6.93349
-15.3111
-7.23177
-17.2083
-7.58959
-19.0698
-7.99836
-21.2179
-8.55615
-23.3063
-9.16965
-25.4419
-9.89107
-28.4024
-10.7225
-31.3182
-11.5123
-34.2802