/*--------------------------------*- C++ -*----------------------------------*\
| =========                 |                                                 |
| \\      /  F ield         | OpenFOAM: The Open Source CFD Toolbox           |
|  \\    /   O peration     | Version:  2212                                  |
|   \\  /    A nd           | Website:  www.openfoam.com                      |
|    \\/     M anipulation  |                                                 |
\*---------------------------------------------------------------------------*/
FoamFile
{
    version     2.0;
    format      ascii;
    arch        "LSB;label=32;scalar=64";
    class       volVectorField;
    location    "100";
    object      U;
}
// * * * * * * * * * * * * * * * * * * * * * * * * * * * * * * * * * * * * * //

dimensions      [0 1 -1 0 0 0 0];

internalField   nonuniform List<vector> 
165000
(
(401.203 33.7752 0)
(348.683 4.22508 0)
(402.038 30.7822 0)
(322.661 -50.2523 0)
(358.198 0.300439 0)
(395.303 25.6856 0)
(228.07 -79.712 0)
(333.771 -52.0701 0)
(360.765 -8.57415 0)
(396.224 22.3575 0)
(92.0551 -210.055 0)
(248.711 -98.297 0)
(337.433 -55.993 0)
(368.501 -15.1008 0)
(403.071 19.0804 0)
(-78.3018 -21.4317 0)
(94.1796 -217.854 0)
(253.849 -112.968 0)
(347.52 -60.1187 0)
(371.151 -23.0321 0)
(401.054 13.7899 0)
(-169.717 20.1454 0)
(-125.955 -105.607 0)
(94.3781 -201.938 0)
(265.672 -127.986 0)
(352.624 -66.5538 0)
(378.791 -29.0491 0)
(394.764 9.45507 0)
(-208.933 10.1793 0)
(-262.732 -55.8973 0)
(-109.239 -168.001 0)
(98.4423 -153.256 0)
(267.762 -134.465 0)
(362.493 -72.1351 0)
(382.109 -34.6604 0)
(397.47 6.92513 0)
(-223.818 2.64732 0)
(-337.246 -30.4831 0)
(-242.143 -69.6991 0)
(-123.019 -201.275 0)
(104.437 -126.538 0)
(275.094 -139.565 0)
(367.48 -79.6165 0)
(389.617 -39.362 0)
(404.639 3.18384 0)
(-221.863 -3.17448 0)
(-365.975 -7.87774 0)
(-312.862 -36.093 0)
(-217.34 -111.37 0)
(-128.259 -221.894 0)
(112.014 -123.56 0)
(276.588 -146.27 0)
(377.409 -86.2063 0)
(393.884 -41.9048 0)
(407.397 -0.248427 0)
(-210.569 -8.42623 0)
(-362.483 8.67115 0)
(-340.572 -9.3025 0)
(-265.796 -60.9832 0)
(-232.876 -123.259 0)
(-115.982 -238.555 0)
(118.481 -140.153 0)
(283.355 -155.589 0)
(382.989 -93.9423 0)
(401.525 -45.1697 0)
(410.892 -2.49216 0)
(-187.457 -13.9832 0)
(-341.689 23.736 0)
(-336.942 10.8349 0)
(-284.347 -15.951 0)
(-278.79 -68.2129 0)
(-260.836 -145.742 0)
(-110.473 -250.417 0)
(126.508 -155.65 0)
(286.996 -163.413 0)
(393.291 -100.578 0)
(406.36 -46.345 0)
(412.794 -4.36354 0)
(-156.19 -19.1198 0)
(-300.118 39.5907 0)
(-317.159 28.7985 0)
(-280.676 17.8878 0)
(-296.502 -18.3792 0)
(-309.137 -78.6535 0)
(-271.171 -170.002 0)
(-105.867 -257.531 0)
(134.245 -167.19 0)
(293.965 -171.864 0)
(399.629 -107.506 0)
(414.4 -46.6653 0)
(415.781 -6.55275 0)
(-113.844 -14.8 0)
(-246.405 54.4364 0)
(-276.686 48.3058 0)
(-267.329 48.7656 0)
(-292.198 21.5054 0)
(-327.806 -18.4569 0)
(-316.335 -90.6359 0)
(-284.033 -190.167 0)
(-108.457 -270.95 0)
(139.458 -178.663 0)
(298.382 -178.79 0)
(410.386 -112.753 0)
(419.66 -45.4123 0)
(418.717 -10.0054 0)
(-63.2221 -2.48831 0)
(-184.11 61.9809 0)
(-225.776 70.5314 0)
(-236.836 81.1512 0)
(-279.386 54.5537 0)
(-320.737 24.9061 0)
(-330.593 -25.4511 0)
(-329.397 -104.047 0)
(-300.978 -207.821 0)
(-103.282 -286.086 0)
(147.153 -197.495 0)
(306.659 -186.885 0)
(418.003 -118.146 0)
(427.927 -44.9067 0)
(420.846 -13.8703 0)
(-25.7168 140.882 0)
(-102.045 96.3508 0)
(-150.943 103.954 0)
(-199.987 107.778 0)
(-250.362 89.7159 0)
(-305.558 69.7772 0)
(-324.816 27.8613 0)
(-343.563 -23.4329 0)
(-346.599 -113.145 0)
(-315.686 -228.817 0)
(-98.8165 -296.897 0)
(155.058 -214.085 0)
(312.97 -191.933 0)
(428.973 -121.497 0)
(433.112 -43.3246 0)
(424.229 -17.7529 0)
(-12.353 197.492 0)
(-62.1652 208.193 0)
(-110.409 163.847 0)
(-159.427 139.32 0)
(-219.293 129.685 0)
(-272.347 111.342 0)
(-312.584 76.5785 0)
(-335.75 35.8774 0)
(-357.55 -33.3915 0)
(-363.972 -125.727 0)
(-330.28 -253.896 0)
(-87.9717 -312.92 0)
(164.285 -232.846 0)
(322.537 -196.989 0)
(437.758 -124.559 0)
(441.328 -43.3816 0)
(429.023 -21.1016 0)
(23.5878 203.169 0)
(-15.1905 217.81 0)
(-81.427 228.283 0)
(-131.904 209.532 0)
(-185.935 179.505 0)
(-239.48 156.389 0)
(-283.739 133.665 0)
(-322.6 94.6843 0)
(-349.28 35.319 0)
(-377.296 -27.8847 0)
(-382.575 -139.104 0)
(-345.619 -270.04 0)
(-83.7433 -335.753 0)
(175.458 -256.559 0)
(332.422 -201.93 0)
(448.868 -126.639 0)
(446.197 -42.2432 0)
(434.673 -23.3934 0)
(52.6286 197.719 0)
(26.7922 211.381 0)
(-14.5972 219.889 0)
(-79.7256 250.546 0)
(-147.81 249.809 0)
(-198.415 222.783 0)
(-250.958 193.463 0)
(-294.346 152.238 0)
(-340.688 96.8462 0)
(-364.503 46.3686 0)
(-391.883 -41.2834 0)
(-403.603 -149.708 0)
(-360.635 -293.829 0)
(-77.9174 -350.745 0)
(182.608 -273.459 0)
(343.019 -202.788 0)
(458.284 -127.941 0)
(454.327 -42.5515 0)
(438.599 -24.7186 0)
(66.639 181.159 0)
(58.9131 212.135 0)
(24.4865 228.756 0)
(-16.2513 219.123 0)
(-78.7109 251.146 0)
(-153.243 275.97 0)
(-217.83 260.003 0)
(-271.499 219.244 0)
(-315.734 176.715 0)
(-356.412 117.969 0)
(-379.873 41.5118 0)
(-413.627 -34.4121 0)
(-425.009 -163.518 0)
(-377.526 -323.611 0)
(-69.9869 -360.577 0)
(196.003 -291.425 0)
(356.199 -206.086 0)
(469.404 -129.18 0)
(458.849 -41.3864 0)
(440.458 -26.0246 0)
(81.6847 160.84 0)
(84.656 204.303 0)
(61.4812 213.613 0)
(26.4686 242.693 0)
(-15.5884 232.376 0)
(-76.6458 258.242 0)
(-159.64 300.009 0)
(-230.321 293.841 0)
(-289.801 254.331 0)
(-333.113 194.708 0)
(-375.99 118.593 0)
(-398.48 54.0128 0)
(-431.439 -50.9327 0)
(-448.151 -180.61 0)
(-394.135 -345.092 0)
(-70.4275 -392.164 0)
(206.127 -309.371 0)
(367.587 -204.299 0)
(478.756 -129.037 0)
(466.743 -40.967 0)
(443.286 -28.3915 0)
(103.114 161.686 0)
(92.863 175.646 0)
(84.6751 218.423 0)
(62.2608 217.046 0)
(27.051 253.647 0)
(-19.7274 269.756 0)
(-77.511 287.283 0)
(-160.502 331.92 0)
(-248.405 331.053 0)
(-313.446 283.105 0)
(-356.545 218.158 0)
(-396.787 139.17 0)
(-416.656 45.7795 0)
(-456.234 -44.2672 0)
(-474.644 -194.043 0)
(-407.93 -376.204 0)
(-55.8802 -399.44 0)
(227.191 -319.258 0)
(382.39 -203.398 0)
(489.633 -128.674 0)
(470.843 -40.143 0)
(446.289 -30.4462 0)
(124.886 151.707 0)
(109.533 168.662 0)
(98.4813 184.514 0)
(94.9699 225.248 0)
(65.471 232.034 0)
(30.1808 256.266 0)
(-18.7218 310.398 0)
(-77.8395 320.232 0)
(-166.044 358.463 0)
(-260.447 365.614 0)
(-334.67 315.876 0)
(-380.411 237.102 0)
(-419.325 138.894 0)
(-438.291 57.4648 0)
(-478.072 -60.9122 0)
(-500.039 -216.748 0)
(-426.733 -406.089 0)
(-53.9559 -394.587 0)
(235.996 -325.481 0)
(394.52 -201.044 0)
(498.795 -127.584 0)
(478.234 -41.1277 0)
(451.031 -31.4058 0)
(137.387 143.033 0)
(134.644 162.492 0)
(109.44 173.655 0)
(114.838 202.286 0)
(95.2711 229.657 0)
(68.7528 253.185 0)
(36.1417 283.867 0)
(-15.3459 330.044 0)
(-79.8188 340.107 0)
(-163.906 381.624 0)
(-274.763 394.119 0)
(-360.445 345.037 0)
(-407.012 258.043 0)
(-444.84 156.289 0)
(-458.209 49.7045 0)
(-504.205 -60.9474 0)
(-529.881 -241.479 0)
(-437.664 -436.056 0)
(-36.3092 -352.013 0)
(243.748 -322.726 0)
(408.313 -197.727 0)
(509.295 -126.562 0)
(481.919 -41.8236 0)
(454.688 -32.5458 0)
(150.967 134.26 0)
(148.497 151.942 0)
(135.662 168.428 0)
(116.158 180.724 0)
(121.395 217.934 0)
(104.401 234.259 0)
(71.0609 265.915 0)
(45.3009 308.124 0)
(-16.3083 350.74 0)
(-74.8122 358.192 0)
(-161.981 385.298 0)
(-280.201 418.469 0)
(-381.827 373.731 0)
(-436.161 277.594 0)
(-470.217 155.58 0)
(-482.905 55.5305 0)
(-531.76 -73.9608 0)
(-560.24 -258.829 0)
(-450.039 -481.239 0)
(-24.4039 -251.044 0)
(244.766 -307.898 0)
(419.25 -195.002 0)
(518.074 -125.473 0)
(488.52 -43.5025 0)
(459.455 -32.9562 0)
(157.798 131.784 0)
(158.739 141.348 0)
(150.82 158.149 0)
(142.7 174.581 0)
(123.894 188.367 0)
(131.261 232 0)
(104.929 245.85 0)
(85.9981 296.826 0)
(47.9293 319.531 0)
(-7.48556 374.665 0)
(-78.4932 373.818 0)
(-156.853 383.914 0)
(-284.042 430.777 0)
(-405.358 397.722 0)
(-465.537 291.893 0)
(-499.246 167.804 0)
(-505.155 51.0054 0)
(-560.21 -82.6885 0)
(-592.325 -291.066 0)
(-453.588 -506.498 0)
(-13.2953 -206.174 0)
(241.715 -297.373 0)
(430.237 -191.582 0)
(527.954 -124.365 0)
(492.286 -44.7372 0)
(463.433 -33.8633 0)
(157.366 120.342 0)
(167.821 138.774 0)
(160.02 145.808 0)
(161.504 165.149 0)
(143.399 180.167 0)
(137.263 197.178 0)
(137.977 244.367 0)
(112.906 254.619 0)
(95.1067 322.678 0)
(56.7404 333.925 0)
(-5.49568 381.161 0)
(-77.1086 396.845 0)
(-157.132 390.148 0)
(-283.291 440.508 0)
(-424.293 416.87 0)
(-497.73 313.851 0)
(-528.716 169.286 0)
(-532.496 49.3591 0)
(-591.762 -94.1737 0)
(-628.763 -335.963 0)
(-434.305 -520.241 0)
(-33.5727 -201.732 0)
(244.461 -288.682 0)
(440.189 -189.113 0)
(536.32 -123.125 0)
(498.419 -46.4864 0)
(468.048 -34.6134 0)
(152.909 114.933 0)
(167.712 127.9 0)
(168.942 143.922 0)
(166.723 151.927 0)
(164.449 171.702 0)
(151.335 187.262 0)
(147.678 208.252 0)
(149.069 254.295 0)
(120.664 269.947 0)
(106.375 341.789 0)
(59.3687 346.158 0)
(3.46539 387.03 0)
(-79.8443 434.081 0)
(-157.696 406.75 0)
(-285.694 454.543 0)
(-446.211 442.388 0)
(-531.344 324.183 0)
(-560.241 174.058 0)
(-557.384 46.8662 0)
(-624.442 -111.481 0)
(-662.849 -391.38 0)
(-423.656 -513.425 0)
(35.222 -335.254 0)
(266.612 -290.522 0)
(451.721 -187.317 0)
(545.655 -121.839 0)
(502.699 -48.5854 0)
(472.738 -35.411 0)
(140.355 106.832 0)
(165.1 122.858 0)
(169.292 133.301 0)
(176.387 149.616 0)
(168.843 157.977 0)
(173.609 178.809 0)
(153.291 194.138 0)
(161.998 222.51 0)
(155.341 262.226 0)
(138.751 288.504 0)
(112.271 347.416 0)
(67.7285 366.069 0)
(8.33168 393.737 0)
(-80.4725 465.204 0)
(-166.339 435.837 0)
(-288.145 474.686 0)
(-466.072 459.905 0)
(-565.997 341.265 0)
(-593.722 176.519 0)
(-587.359 39.0576 0)
(-663.382 -127.043 0)
(-697.898 -437.631 0)
(-398.415 -513.401 0)
(30.8374 -427.782 0)
(277.966 -300.337 0)
(462.68 -185.046 0)
(553.665 -120.513 0)
(507.959 -51.9514 0)
(477.34 -36.0655 0)
(144.905 99.2497 0)
(153.074 113.917 0)
(167.401 128.814 0)
(176.601 138.763 0)
(178.931 154.935 0)
(176.913 164.462 0)
(177.183 186.251 0)
(163.889 203.236 0)
(172.523 235.376 0)
(164.559 269.403 0)
(152.706 320.987 0)
(117.844 344.12 0)
(75.1244 395.957 0)
(18.0024 405.194 0)
(-79.2402 488.852 0)
(-169.398 454.815 0)
(-288.516 483.31 0)
(-485.368 483.122 0)
(-604.089 359.783 0)
(-629.497 178.97 0)
(-615.793 36.9756 0)
(-704.225 -174.712 0)
(-724.235 -474.666 0)
(-391.672 -519.27 0)
(51.8249 -469.581 0)
(306.066 -309.159 0)
(475.358 -184.72 0)
(562.441 -119.352 0)
(512.313 -55.5944 0)
(482.649 -36.4847 0)
(152.216 90.3054 0)
(156.758 107.29 0)
(155.876 120.091 0)
(176.041 134.377 0)
(178.941 144.282 0)
(186.585 160.646 0)
(179.881 170.486 0)
(187.039 193.994 0)
(168.284 213.73 0)
(187.322 251.274 0)
(172.538 276.428 0)
(169.475 341.572 0)
(119.141 343.724 0)
(87.3299 421.259 0)
(21.0775 425.531 0)
(-73.5613 506.87 0)
(-177.878 467.705 0)
(-287.25 481.156 0)
(-501.776 496.399 0)
(-640.938 369.762 0)
(-666.221 178.441 0)
(-649.189 23.138 0)
(-750.472 -221.202 0)
(-750.081 -505.364 0)
(-386.997 -528.742 0)
(62.8397 -488.51 0)
(324.259 -315.765 0)
(487.589 -182.777 0)
(569.867 -118.476 0)
(517.029 -59.4519 0)
(487.458 -36.8079 0)
(165.062 86.4742 0)
(163.64 96.6046 0)
(160.431 111.921 0)
(166.509 126.11 0)
(178.932 139.836 0)
(185.905 150.316 0)
(189.354 165.969 0)
(188.562 177.607 0)
(192.513 201.794 0)
(181.52 222.204 0)
(195.39 265.479 0)
(188.309 291.725 0)
(173.535 354.222 0)
(133.638 356.983 0)
(94.2783 440.459 0)
(33.3036 445.534 0)
(-69.2993 514.523 0)
(-181.123 475.031 0)
(-286.913 475.182 0)
(-513.476 504.517 0)
(-680.069 383.204 0)
(-705.632 176.994 0)
(-685.666 14.7565 0)
(-794.954 -276.639 0)
(-769.461 -538.935 0)
(-380.16 -547.135 0)
(81.3841 -502.64 0)
(349.678 -322.061 0)
(500.882 -182.198 0)
(577.876 -117.625 0)
(521.015 -63.5492 0)
(492.998 -36.7302 0)
(168.995 79.1962 0)
(175.582 92.9053 0)
(167.159 100.428 0)
(172.923 116.574 0)
(171.369 130.908 0)
(187.736 146.2 0)
(187.829 155.813 0)
(197.544 171.908 0)
(192.582 184.231 0)
(203.53 210.685 0)
(190.281 231.238 0)
(211.256 276.273 0)
(201.93 303.531 0)
(187.829 359.96 0)
(141.972 367.447 0)
(109.141 463.531 0)
(39.2656 455.929 0)
(-66.1013 512.199 0)
(-186.626 483.622 0)
(-286.292 475.151 0)
(-524.404 516.258 0)
(-719.533 397.631 0)
(-747.336 175.458 0)
(-727.858 -6.09137 0)
(-843.759 -313.585 0)
(-789.07 -573.857 0)
(-372.166 -569.004 0)
(99.9411 -513.362 0)
(372.911 -326.445 0)
(513.881 -179.903 0)
(584.53 -117.408 0)
(525.433 -67.2339 0)
(497.803 -36.5952 0)
(167.282 71.8907 0)
(182.976 85.8001 0)
(177.712 97.2161 0)
(177.491 104.915 0)
(178.992 121.191 0)
(182.533 134.769 0)
(192.127 151.933 0)
(194.678 161.479 0)
(201.488 177.196 0)
(202.086 191.713 0)
(210.595 218.946 0)
(204.441 241.713 0)
(221.21 287.913 0)
(218.207 316.102 0)
(192.778 365.059 0)
(161.31 381.36 0)
(120.896 483.212 0)
(38.1608 453.289 0)
(-60.1766 503.731 0)
(-190.826 501.576 0)
(-289.616 484.355 0)
(-535.263 530.047 0)
(-761.326 409.508 0)
(-791.423 171.591 0)
(-773.279 -20.7876 0)
(-891.209 -351.501 0)
(-805.6 -610.453 0)
(-361.146 -585.975 0)
(121.203 -519.142 0)
(397.512 -329.4 0)
(527.538 -178.283 0)
(591.648 -117.413 0)
(530.032 -70.7467 0)
(503.738 -35.7881 0)
(166.806 63.0939 0)
(183.65 79.0096 0)
(186.677 90.2592 0)
(185.585 101.454 0)
(182.261 110.063 0)
(190.13 125.078 0)
(190.179 139.227 0)
(200.23 156.944 0)
(197.386 166.681 0)
(210.679 183.199 0)
(207.661 199.05 0)
(223.101 227.441 0)
(215.305 251.547 0)
(236.278 297.873 0)
(230.12 329.189 0)
(202.746 366.829 0)
(180.008 400.79 0)
(131.401 490.424 0)
(36.4213 448.918 0)
(-54.4686 513.959 0)
(-198.653 546.083 0)
(-294.439 509.786 0)
(-551.252 544.293 0)
(-804.062 423.444 0)
(-839.082 168.429 0)
(-822.439 -42.6637 0)
(-942.072 -379.362 0)
(-823.475 -649.497 0)
(-348.4 -589.799 0)
(139.754 -516.949 0)
(421.454 -330.367 0)
(540.844 -174.683 0)
(597.469 -117.984 0)
(534.365 -74.8569 0)
(509.282 -34.5902 0)
(164.085 54.9869 0)
(185.241 69.8204 0)
(188.181 83.7516 0)
(197.505 94.4581 0)
(188.303 105.666 0)
(192.509 114.186 0)
(196.881 129.669 0)
(200.872 144.126 0)
(206.159 161.456 0)
(204.503 171.524 0)
(216.649 189.198 0)
(217.973 206.701 0)
(231.573 236.072 0)
(230.883 261.24 0)
(248.238 307.679 0)
(243.825 335.817 0)
(211.027 372.637 0)
(205.868 424.859 0)
(137.395 480.242 0)
(40.201 455.393 0)
(-43.614 518.519 0)
(-200.803 580.601 0)
(-303.339 536.487 0)
(-566.419 560.62 0)
(-849.849 436.85 0)
(-889.153 165.69 0)
(-873.683 -58.0911 0)
(-993.016 -408.23 0)
(-837.391 -686.838 0)
(-332.546 -579.251 0)
(158.075 -507.251 0)
(443.416 -329.179 0)
(554.466 -171.189 0)
(603.619 -118.867 0)
(539.275 -77.7025 0)
(515.412 -32.7307 0)
(149.889 44.6516 0)
(187.722 63.1618 0)
(190.108 75.9446 0)
(200.335 87.5111 0)
(201.849 99.1674 0)
(196.546 109.495 0)
(197.587 118.257 0)
(208.121 133.53 0)
(210.012 148.75 0)
(213.585 165.377 0)
(209.368 176.575 0)
(227.048 195.281 0)
(225.417 214.407 0)
(244.202 244.323 0)
(242.777 270.767 0)
(264.833 316.967 0)
(252.444 342.066 0)
(226.368 377.632 0)
(222.7 448.972 0)
(140.193 462.349 0)
(45.9068 500.292 0)
(-35.7953 511.932 0)
(-200.463 602.045 0)
(-308.914 556.974 0)
(-583.176 573.249 0)
(-895.429 450.37 0)
(-943.03 164.272 0)
(-927.984 -75.2735 0)
(-1046.87 -434.859 0)
(-851.348 -717.826 0)
(-315.046 -560.105 0)
(172.009 -489.151 0)
(464.132 -325.629 0)
(567.273 -165.88 0)
(608.419 -119.759 0)
(540.523 -79.764 0)
(520.982 -30.3757 0)
(149.999 37.5443 0)
(173.823 47.662 0)
(194.597 69.0564 0)
(202.628 79.8231 0)
(205.654 92.3225 0)
(212.232 102.18 0)
(200.22 113.217 0)
(208.63 121.474 0)
(215.75 137.674 0)
(221.091 152.993 0)
(219.995 169.309 0)
(217.731 181.148 0)
(235.255 202.152 0)
(236.586 221.594 0)
(254.359 252.5 0)
(258.482 279.061 0)
(276.877 323.709 0)
(265.063 348.814 0)
(244.193 385.452 0)
(234.489 462.763 0)
(143.068 449.28 0)
(59.6232 527.181 0)
(-32.3181 518.686 0)
(-195.278 624.558 0)
(-318.025 571.23 0)
(-599.307 581.99 0)
(-942.91 462.042 0)
(-998.525 165.734 0)
(-984.261 -83.4465 0)
(-1102.82 -462.152 0)
(-861.034 -731.86 0)
(-296.792 -537.543 0)
(184.777 -466.591 0)
(482.322 -319.814 0)
(579.989 -160.442 0)
(613.436 -120.672 0)
(547.414 -73.6359 0)
(525.953 -28.3215 0)
(181.555 41.9487 0)
(150.276 36.9244 0)
(191.834 63.7395 0)
(207.181 73.094 0)
(208.018 84.5155 0)
(217.451 95.8654 0)
(217.023 105.385 0)
(209.114 115.783 0)
(214.94 125.023 0)
(227.216 141.585 0)
(230.657 155.821 0)
(228.099 173.004 0)
(225.056 186.096 0)
(246.776 208.492 0)
(245.296 228.996 0)
(268.159 259.864 0)
(271.117 286.652 0)
(292.065 327.862 0)
(273.949 354.053 0)
(267.069 395.945 0)
(244.441 468.431 0)
(147.84 444.249 0)
(74.3115 543.72 0)
(-25.0157 534.643 0)
(-192.428 650.797 0)
(-330.872 579.342 0)
(-610.055 581.718 0)
(-988.623 472.125 0)
(-1057.15 170.135 0)
(-1044.08 -85.3078 0)
(-1160.88 -484.061 0)
(-865.105 -731.614 0)
(-277.125 -520.065 0)
(195.458 -440.022 0)
(499.147 -312.29 0)
(591.547 -153.361 0)
(617.287 -120.902 0)
(554.018 -64.0087 0)
(530.23 -26.7868 0)
(236.875 55.0066 0)
(159.175 34.2093 0)
(176.452 44.4663 0)
(204.66 65.7763 0)
(213.058 78.8935 0)
(219.382 87.9228 0)
(222.739 99.978 0)
(226.612 107.456 0)
(213.135 118.952 0)
(227.235 129.879 0)
(234.926 144.625 0)
(242.044 159.473 0)
(235.182 176.67 0)
(235.407 190.909 0)
(256.436 215.38 0)
(257.309 235.208 0)
(279.589 266.686 0)
(286.656 293.04 0)
(303.295 332.822 0)
(288.078 358.756 0)
(285.982 408.329 0)
(255.448 469.913 0)
(154.013 449.549 0)
(88.4933 559.314 0)
(-15.2569 554.723 0)
(-189.643 673.254 0)
(-344.807 580.263 0)
(-620.123 576.516 0)
(-1034.67 482.444 0)
(-1116.14 178.729 0)
(-1106.13 -86.2787 0)
(-1218.76 -499.23 0)
(-868.401 -725.737 0)
(-256.918 -512.479 0)
(209.834 -412.375 0)
(514.284 -303.016 0)
(602.66 -145.787 0)
(621.878 -119.787 0)
(556.085 -57.8222 0)
(534.298 -24.6516 0)
(262.927 60.4083 0)
(210.491 48.3554 0)
(156.051 35.8091 0)
(191.343 58.464 0)
(215.771 73.5825 0)
(221.686 81.5223 0)
(225.949 91.9676 0)
(233.089 102.382 0)
(231.846 109.149 0)
(225.488 119.6 0)
(235.145 132.339 0)
(246.328 148.678 0)
(251.181 162.002 0)
(245.039 179.914 0)
(244.95 195.923 0)
(268.706 221.279 0)
(267.528 241.138 0)
(293.994 272.132 0)
(298.704 298.087 0)
(318.173 336.787 0)
(300.651 363.817 0)
(307.556 417.923 0)
(261.962 468.148 0)
(165.576 453.753 0)
(103.958 578.244 0)
(-1.67063 571.658 0)
(-184.361 683.738 0)
(-362.047 581.324 0)
(-635.133 572.584 0)
(-1078.27 497.642 0)
(-1177.75 189.641 0)
(-1171.79 -92.4004 0)
(-1275.37 -507.577 0)
(-869.936 -705.83 0)
(-236.414 -516.547 0)
(227.358 -384.593 0)
(528.934 -292.141 0)
(612.536 -136.684 0)
(625.566 -117.761 0)
(561.859 -52.6427 0)
(537.698 -23.4417 0)
(274.911 60.6897 0)
(255.608 62.4072 0)
(177.901 38.2257 0)
(177.199 42.1027 0)
(213.798 66.1048 0)
(221.77 76.3407 0)
(229.261 86.9928 0)
(234.905 93.6259 0)
(239.605 105.767 0)
(239.093 111.586 0)
(231.487 123.727 0)
(247.512 135.867 0)
(254.756 151.987 0)
(262.003 165.259 0)
(253.588 183.085 0)
(257.535 200.856 0)
(278.169 227.298 0)
(280.076 245.918 0)
(306.384 277.871 0)
(313.35 301.416 0)
(329.997 341.312 0)
(318.412 370.209 0)
(324.271 427.322 0)
(270.203 464.425 0)
(178.056 461.884 0)
(122.529 597.037 0)
(9.71273 578.478 0)
(-178.153 684.629 0)
(-380.338 592.718 0)
(-648.95 581.965 0)
(-1123.89 520.476 0)
(-1241.02 208.798 0)
(-1239.72 -108.355 0)
(-1328.5 -512.059 0)
(-869.98 -668.662 0)
(-218.04 -526.541 0)
(249.541 -357.877 0)
(542.661 -279.971 0)
(622.2 -126.32 0)
(629.337 -114.208 0)
(566.733 -46.6705 0)
(541.231 -21.591 0)
(283.472 61.6661 0)
(274.29 63.3191 0)
(236.809 56.8415 0)
(167.383 37.7682 0)
(188.354 51.6476 0)
(223.972 71.9964 0)
(230.566 81.2971 0)
(235.895 87.4667 0)
(243.958 98.1874 0)
(246.641 106.411 0)
(246.106 114.254 0)
(242.694 124.846 0)
(257.579 138.939 0)
(265.519 155.095 0)
(271.162 168.664 0)
(264.508 185.921 0)
(269.378 206.641 0)
(289.866 231.591 0)
(291.071 250.607 0)
(320.897 282.194 0)
(325.44 305.122 0)
(344.889 345.311 0)
(334.126 374.419 0)
(341.423 434.3 0)
(274.674 462.161 0)
(198.94 471.639 0)
(139.591 610.768 0)
(15.3212 568.275 0)
(-174.803 687.886 0)
(-397.208 631.495 0)
(-666.812 610.214 0)
(-1170.06 547.244 0)
(-1308.52 235.958 0)
(-1311.73 -130.812 0)
(-1376.98 -510.998 0)
(-871.126 -621.578 0)
(-203.439 -535.302 0)
(271.961 -332.08 0)
(555.933 -266.138 0)
(630.865 -114.867 0)
(632.697 -108.767 0)
(570.172 -42.8935 0)
(543.914 -20.0747 0)
(287.002 61.7738 0)
(284.202 64.4876 0)
(268.488 63.9008 0)
(206.405 45.1885 0)
(177.088 42.0118 0)
(215.966 65.5523 0)
(233.843 75.5986 0)
(236.627 82.6925 0)
(244.325 92.1575 0)
(251.251 99.1025 0)
(254.409 109.775 0)
(252.513 116.155 0)
(251.832 128.183 0)
(269.398 141.76 0)
(274.606 158.009 0)
(282.122 171.912 0)
(274.226 189.382 0)
(283.87 211.114 0)
(299.507 235.968 0)
(304.222 253.993 0)
(333.29 286.513 0)
(340.277 307.874 0)
(358.156 350.671 0)
(353.644 379.048 0)
(355.023 438.184 0)
(281.575 458.878 0)
(224.689 486.361 0)
(158.396 610.954 0)
(14.8045 562.898 0)
(-166.322 704.086 0)
(-415.588 693.651 0)
(-688.043 644.352 0)
(-1218.39 577.05 0)
(-1380.09 273.582 0)
(-1387.22 -159.803 0)
(-1418.89 -499.815 0)
(-874.389 -568.413 0)
(-189.058 -538.283 0)
(294.899 -305.967 0)
(567.666 -251.336 0)
(639.307 -103.054 0)
(635.511 -101.788 0)
(575.131 -35.518 0)
(546.625 -18.3606 0)
(287.711 60.6288 0)
(287.88 64.8249 0)
(281.832 65.0224 0)
(256.416 62.2684 0)
(186.036 39.8614 0)
(196.207 47.083 0)
(229.512 69.7505 0)
(240.448 78.308 0)
(244.163 85.0464 0)
(253.31 93.508 0)
(259.646 102.39 0)
(260.562 110.881 0)
(260.373 119.117 0)
(261.936 129.879 0)
(280.664 145.335 0)
(284.936 160.229 0)
(291.855 175.13 0)
(286.624 191.923 0)
(296.977 215.284 0)
(310.915 238.886 0)
(316.26 257.131 0)
(347.532 289.77 0)
(352.97 310.831 0)
(373.58 354.77 0)
(370.073 382.409 0)
(370.408 440.884 0)
(286.715 455.861 0)
(254.306 504.56 0)
(167.173 595.996 0)
(25.6916 588.954 0)
(-155.181 721.1 0)
(-428.98 751.914 0)
(-712.814 672.622 0)
(-1264.4 610.077 0)
(-1457.61 319.55 0)
(-1467.42 -195.627 0)
(-1452.25 -478.452 0)
(-880.107 -510.369 0)
(-176.316 -534.064 0)
(314.355 -278.983 0)
(577.969 -234.995 0)
(646.793 -90.3208 0)
(638.162 -93.2045 0)
(577.698 -29.3867 0)
(548.571 -16.7815 0)
(286.298 60.6176 0)
(291.239 64.2623 0)
(287.335 66.0488 0)
(280.002 65.4161 0)
(230.131 51.6193 0)
(182.781 41.2023 0)
(214.494 61.5235 0)
(239.547 73.8102 0)
(247.665 79.3298 0)
(254.488 87.4646 0)
(259.839 96.0335 0)
(267.897 104.183 0)
(268.328 113.737 0)
(266.958 120.41 0)
(273.072 133.286 0)
(291.661 147.894 0)
(294.613 162.925 0)
(303.023 177.531 0)
(297.913 195.159 0)
(312.028 218.49 0)
(320.683 241.557 0)
(330.118 259.841 0)
(359.581 292.741 0)
(369.077 312.996 0)
(387.921 358.918 0)
(388.547 384.841 0)
(382.536 441.71 0)
(297.937 452.296 0)
(278.959 521.205 0)
(181.492 580.372 0)
(42.0523 629.9 0)
(-139.133 726.195 0)
(-438.055 801.398 0)
(-739.115 698.631 0)
(-1309.97 647.793 0)
(-1541.48 370.921 0)
(-1550.62 -238.377 0)
(-1476.09 -451.078 0)
(-887.486 -450.09 0)
(-167.312 -524.4 0)
(330.308 -251.295 0)
(586.291 -217.704 0)
(653.781 -77.3014 0)
(640.215 -83.421 0)
(581.431 -23.1397 0)
(550.408 -15.1416 0)
(288.145 60.093 0)
(291.842 63.8606 0)
(290.872 65.7394 0)
(285.261 67.1855 0)
(268.903 64.441 0)
(201.951 41.5038 0)
(204.923 46.691 0)
(235.768 67.7204 0)
(247.46 75.2812 0)
(255.208 80.7916 0)
(262.062 90.1397 0)
(269.317 97.8856 0)
(275.41 106.536 0)
(275.058 114.955 0)
(275.42 123.016 0)
(283.614 135.775 0)
(302.574 150.936 0)
(305.187 164.899 0)
(312.92 179.717 0)
(311.689 197.858 0)
(325.032 220.512 0)
(332.796 243.288 0)
(343.143 262.367 0)
(373.131 294.499 0)
(382.718 315.306 0)
(404.335 361.691 0)
(404.127 386.511 0)
(396.631 441.144 0)
(310.451 449.535 0)
(298.922 530.208 0)
(195.96 571.255 0)
(62.1604 670.37 0)
(-123.116 722.178 0)
(-442.207 847.804 0)
(-767.852 734.676 0)
(-1353.5 689.14 0)
(-1632.74 421.391 0)
(-1636.23 -287.07 0)
(-1490.42 -424.044 0)
(-898.022 -388.168 0)
(-160.855 -510.555 0)
(345.066 -222.98 0)
(593.599 -199.26 0)
(659.642 -63.4304 0)
(642.185 -72.8284 0)
(583.541 -16.3035 0)
(551.632 -13.812 0)
(285.035 59.2654 0)
(290.248 63.6589 0)
(290.918 65.6456 0)
(290.549 67.8683 0)
(282.985 68.1722 0)
(245.55 56.168 0)
(194.432 40.6211 0)
(223.233 56.0973 0)
(245.838 68.7701 0)
(255.175 76.9798 0)
(264.097 83.2657 0)
(272.519 92.332 0)
(275.244 99.7267 0)
(284.435 108.836 0)
(281.833 116.879 0)
(283.535 125.277 0)
(295.057 138.278 0)
(313.451 153.572 0)
(314.676 167.111 0)
(324.298 181.189 0)
(324.493 201.116 0)
(339.08 222.296 0)
(343.394 244.754 0)
(357.375 264.835 0)
(385.115 296.283 0)
(399.53 316.896 0)
(419.048 363.398 0)
(421.294 387.082 0)
(408.362 438.827 0)
(327.723 447.77 0)
(316.614 536.322 0)
(218.86 570.037 0)
(78.9486 696.111 0)
(-105.696 720.806 0)
(-445.848 900.373 0)
(-797.461 789.466 0)
(-1398.84 730.976 0)
(-1731.47 466.71 0)
(-1723.1 -343.629 0)
(-1495.34 -405.205 0)
(-907.812 -335.586 0)
(-158.171 -485.752 0)
(364.054 -193.663 0)
(600.192 -179.412 0)
(664.763 -49.5123 0)
(643.246 -61.7143 0)
(585.842 -10.4473 0)
(552.684 -12.5769 0)
(280.366 58.0374 0)
(293.382 62.9789 0)
(294.147 65.0158 0)
(292.691 67.3595 0)
(286.803 69.1728 0)
(276.126 65.7823 0)
(216.09 42.2588 0)
(213.634 46.0873 0)
(240.941 67.1348 0)
(252.628 70.6161 0)
(264.427 78.913 0)
(271.943 85.6618 0)
(279.227 94.0163 0)
(285.591 101.932 0)
(290.921 110.081 0)
(289.756 118.49 0)
(292.855 127.154 0)
(306.469 141.176 0)
(323.677 155.613 0)
(325.24 168.527 0)
(335.107 182.792 0)
(338.441 203.146 0)
(351.71 223.236 0)
(356.616 245.947 0)
(370.764 266.947 0)
(398.426 297.051 0)
(414.083 318.668 0)
(435.62 363.805 0)
(435.584 387.304 0)
(422.681 435.121 0)
(343.864 446.018 0)
(337.552 538.402 0)
(242.371 573.667 0)
(96.5285 706.699 0)
(-93.6209 733.38 0)
(-445.89 961.639 0)
(-828.98 857.927 0)
(-1445.45 764.698 0)
(-1836.91 504.913 0)
(-1811.13 -403.781 0)
(-1488.84 -400.392 0)
(-914.312 -301.957 0)
(-157.816 -452.028 0)
(388.266 -163.285 0)
(606.888 -158.438 0)
(669.051 -34.9754 0)
(644.401 -50.3868 0)
(587.074 -5.47657 0)
(553.359 -11.2026 0)
(259.895 56.6694 0)
(287.055 62.0856 0)
(292.589 65.0059 0)
(293.247 67.2831 0)
(291.082 68.5299 0)
(289.308 67.9285 0)
(257.344 55.6255 0)
(207.813 39.835 0)
(235.73 54.026 0)
(250.899 66.5731 0)
(261.461 72.2488 0)
(272.515 81.4131 0)
(280.697 88.2355 0)
(288.347 96.011 0)
(291.814 103.365 0)
(300.391 111.942 0)
(296.935 120.073 0)
(301.988 129.422 0)
(318.044 143.758 0)
(334.184 157.295 0)
(334.522 170.29 0)
(347.241 184.516 0)
(351.4 204.961 0)
(364.937 223.993 0)
(368.25 246.845 0)
(385.105 268.246 0)
(410.791 297.515 0)
(430.892 319.796 0)
(450.19 363.236 0)
(451.608 386.05 0)
(434.56 430.228 0)
(364.379 443.906 0)
(358.384 539.459 0)
(268.801 577.802 0)
(115.486 708.227 0)
(-73.5041 771.344 0)
(-444.043 1020.68 0)
(-861.21 925.02 0)
(-1494.24 783.024 0)
(-1948.11 532.068 0)
(-1900.37 -466.369 0)
(-1474.45 -404.206 0)
(-917.933 -287.353 0)
(-156.761 -423.198 0)
(413.166 -132.331 0)
(613.086 -135.942 0)
(672.779 -20.5504 0)
(644.433 -39.1918 0)
(588.341 0.406347 0)
(553.71 -10.3856 0)
(234.115 55.1696 0)
(269.188 61.4232 0)
(288.502 64.5054 0)
(293.49 67.4091 0)
(291.32 68.1537 0)
(294.312 67.3639 0)
(286.706 60.8313 0)
(232.655 42.3708 0)
(224.126 46.6527 0)
(248.976 64.5018 0)
(255.762 68.29 0)
(271.836 75.9237 0)
(279.729 83.618 0)
(287.609 90.1925 0)
(295.29 97.3733 0)
(301.794 104.951 0)
(307.127 112.96 0)
(305.406 121.437 0)
(312.902 131.578 0)
(329.125 146.042 0)
(343.77 158.831 0)
(344.887 171.438 0)
(358.807 186.544 0)
(364.3 206.29 0)
(377.515 224.687 0)
(382.19 247.505 0)
(398.461 269.196 0)
(424.371 297.16 0)
(445.784 320.23 0)
(466.368 361.693 0)
(465.059 383.87 0)
(447.837 424.52 0)
(383.636 441.707 0)
(382.913 538.708 0)
(292.096 580.321 0)
(140.948 707.369 0)
(-33.559 834.813 0)
(-441.068 1062.35 0)
(-893.056 978.464 0)
(-1543.73 781 0)
(-2062.54 549.463 0)
(-1990.02 -533.479 0)
(-1451.31 -424.136 0)
(-917.055 -291.52 0)
(-152.881 -411.611 0)
(432.027 -100.961 0)
(618.331 -113.165 0)
(676.202 -5.83943 0)
(644.682 -28.157 0)
(588.461 3.8062 0)
(553.962 -9.10642 0)
(222.061 54.9215 0)
(237.844 60.3185 0)
(268.988 64.2938 0)
(290.606 66.6118 0)
(291.695 67.9119 0)
(296.642 65.5351 0)
(297.072 60.7147 0)
(276.235 52.197 0)
(225.388 41.3299 0)
(242.897 54.4156 0)
(257.369 64.4341 0)
(264.689 71.0209 0)
(279.927 78.8929 0)
(287.02 85.7048 0)
(296.069 92.3593 0)
(303.323 98.4845 0)
(308.793 106.8 0)
(316.153 114.228 0)
(313.774 122.916 0)
(322.984 133.849 0)
(340.064 148.461 0)
(353.506 159.617 0)
(354.938 173.175 0)
(370.666 188.274 0)
(376.649 207.256 0)
(390.234 224.846 0)
(394.575 247.787 0)
(412.494 269.108 0)
(437.433 296.512 0)
(462.336 319.776 0)
(480.496 359.126 0)
(480.284 380.054 0)
(459.374 418.006 0)
(405.933 438.879 0)
(406.763 536.807 0)
(316.609 580.19 0)
(172.767 710.871 0)
(22.2522 896.874 0)
(-436.016 1079.27 0)
(-923.768 1009.39 0)
(-1593.8 758.886 0)
(-2179.39 563.37 0)
(-2081.96 -600.766 0)
(-1419.59 -460.067 0)
(-911.103 -322.434 0)
(-142.904 -406.127 0)
(446.666 -68.9174 0)
(621.711 -89.7973 0)
(678.706 8.66662 0)
(643.775 -17.5752 0)
(588.816 8.75031 0)
(553.767 -8.38304 0)
(220.023 54.9454 0)
(224.513 61.2068 0)
(237.139 64.3413 0)
(271.031 65.8432 0)
(289.27 67.3701 0)
(298.228 64.6732 0)
(297.645 59.8116 0)
(294.022 54.5086 0)
(257.474 45.2838 0)
(235.57 48.5498 0)
(253.956 62.3937 0)
(263.439 65.5274 0)
(274.881 74.2984 0)
(287.232 81.2269 0)
(293.792 87.5634 0)
(302.354 93.7122 0)
(310.426 100.274 0)
(317.724 107.601 0)
(323.621 115.606 0)
(322.645 124.67 0)
(334.318 136.34 0)
(350.14 149.886 0)
(362.816 161.135 0)
(365.46 174.852 0)
(382.054 190.135 0)
(388.441 207.979 0)
(402.767 225.295 0)
(408.57 247.295 0)
(425.89 268.589 0)
(451.247 295.045 0)
(477.114 318.262 0)
(495.973 355.334 0)
(493.016 374.866 0)
(473.52 410.72 0)
(427.415 435.265 0)
(433.133 532.424 0)
(339.792 577.317 0)
(215.847 720.329 0)
(71.3475 933.765 0)
(-422.862 1076.98 0)
(-954.523 1014.55 0)
(-1640.51 721.978 0)
(-2297.69 571.595 0)
(-2178.77 -659.269 0)
(-1385.34 -509.098 0)
(-902.131 -388.266 0)
(-113.755 -416.292 0)
(464.088 -36.3621 0)