/*--------------------------------*- C++ -*----------------------------------*\
| =========                 |                                                 |
| \\      /  F ield         | OpenFOAM: The Open Source CFD Toolbox           |
|  \\    /   O peration     | Version:  2212                                  |
|   \\  /    A nd           | Website:  www.openfoam.com                      |
|    \\/     M anipulation  |                                                 |
\*---------------------------------------------------------------------------*/
FoamFile
{
    version     2.0;
    format      ascii;
    arch        "LSB;label=32;scalar=64";
    class       volScalarField;
    location    "100";
    object      omega;
}
// * * * * * * * * * * * * * * * * * * * * * * * * * * * * * * * * * * * * * //

dimensions      [0 0 -1 0 0 0 0];

internalField   nonuniform List<scalar> 
370500
(
3169.99
2004.57
3229.62
1441.61
1993.69
3252.47
1332.51
1433.3
1953.87
3298.67
1999.22
1334.72
1408.21
1929.82
3321.62
2629.55
2046.96
1315.57
1386.43
1890.96
3366.56
10728.9
2607.99
1995.74
1298
1360.45
1856.72
3394.37
9498.26
3994.19
2546.44
1953.61
1257.95
1329.37
1816.09
3435.86
13751.3
8511.52
2194.89
2546.96
1843.07
1237.51
1296.74
1775.4
3468.83
16703.8
12386.5
6907.82
2104.37
2422.35
1763.2
1206.24
1263.64
1735.38
3506.05
18641.1
15067.5
10405
5678.04
1995.17
2358.32
1680.8
1182.51
1231.08
1697.34
3540.91
19929.3
16829.9
12710.8
8929.6
4832.94
2135.94
2253.89
1583.02
1163.01
1202.68
1664.03
3573.05
20409.8
18004.2
14209.4
10970.2
7809.22
4208.94
2295.42
2124.69
1540.01
1146.94
1180.37
1637.31
3603.98
20684.2
18437.4
15203.7
12296
9675.87
6960.9
3755.89
2347.34
1987.88
1474.19
1134.24
1172.24
1616.04
3630.49
20371.1
18683.6
15569.3
13179.7
10866
8689.19
6266.36
3404.82
2289.9
1872.02
1443.68
1134.71
1171.91
1600.53
3651.88
20081.6
18397.7
15780.2
13494.3
11651.2
9775.68
7890.16
5704.35
3145.97
2253.49
1758.7
1400.48
1147.8
1173.92
1583.71
3672.19
19227.7
18133.2
15531.3
13676.9
11928.1
10501.6
8903.74
7255.41
5198.37
2996.87
2095.72
1692.14
1384.3
1172.71
1188.98
1568.95
3682.85
18200.1
17351
15308.4
13458.5
12098.5
10738
9570.06
8204.41
6713.61
4779.67
2773.97
2051.98
1618.05
1346.01
1193.22
1217.4
1550.02
3695.72
16783.5
16414.8
14636.7
13269.2
11897.2
10888
9782.81
8835.82
7624.66
6260.56
4420.09
2618.49
1913.68
1577.59
1332.58
1231.65
1254.67
1535.95
3699.1
15166
15124.1
13844.4
12675.9
11743.6
10705.1
9929.65
9031.07
8223.72
7144.94
5863.47
4100.33
2430.22
1880.27
1528.78
1314.57
1263.84
1294.29
1518.58
3704.5
13275.8
13652.6
12739.1
11978.3
11209.9
10588.3
9758.09
9160.86
8400.93
7724.92
6735.48
5523.04
3792.08
2300.1
1795.05
1523.27
1336.08
1302.12
1331.15
1505.24
3706.78
11205.7
11932.8
11481.4
11006.9
10602.1
10108.1
9669.79
8999.23
8533.93
7893.57
7294.08
6370.62
5213.01
3509.82
2137.62
1739.73
1502.03
1334.74
1333.96
1360.75
1488.94
3708.68
8977.17
10048.7
9998.04
9897.61
9721.53
9550.81
9222.61
8937.42
8376.42
8011.56
7456.39
6937.8
6073.67
4891.77
3285.78
1931.27
1687.36
1505.94
1338.57
1359.43
1374.91
1475.85
3714.18
5038.91
7987.53
8359.09
8585.5
8722.14
8754.48
8731.01
8536.04
8346.52
7861.36
7585.56
7095.69
6623.96
5778.76
4633.17
3081.03
1749.21
1627.6
1500.3
1360.57
1375.34
1376.38
1459.76
3714.99
1162.64
4241.71
6381.88
7085.3
7512.47
7832.38
7983.85
8068.45
7959.42
7853.54
7435.87
7218.36
6779.62
6350.51
5532.73
4357.73
2917.65
1631.19
1591.51
1500.61
1363.8
1388.55
1376.49
1445.22
3719.85
1086.88
1243.7
2885.89
5156.2
6138.92
6733.01
7145.72
7377.55
7539.06
7506.34
7443.57
7070.27
6916.17
6521.07
6118.36
5262.2
4195.04
2639.78
1485.92
1594.16
1517.55
1372.67
1396.07
1378.04
1428.64
3717.81
1054.71
1189.01
1237.69
2220.98
4300.26
5456.43
6098.43
6566.6
6873.87
7101.59
7113.52
7099.09
6775.86
6658.58
6286.77
5910.45
5025.18
4064.94
2503
1583.38
1584.97
1501.11
1381.99
1403.61
1378.16
1414.14
3720.54
920.082
1079.23
1208.28
1256.84
1846.94
3551.91
4786.2
5550.37
6116.21
6477.62
6736.61
6801.58
6813.49
6511.64
6439.81
6105.62
5704.48
4888.97
3831.89
2207.5
2229.72
1572.7
1508.61
1400.3
1411.05
1380.45
1399.33
3717.23
896.578
965.361
1073.24
1206.03
1216.96
1567.17
2885.59
4271.86
5120.35
5728.52
6125.82
6444.29
6533.48
6572.74
6308.62
6263.88
5930.6
5534.31
4768.07
3624.22
2319.94
2358.33
1573.52
1525.47
1409.74
1415.1
1379.87
1387.93
3707.2
861.313
931
951.568
1065.02
1140.18
1136.57
1402.44
2348.46
3750.71
4666.44
5357.27
5831.37
6174.24
6305.82
6372.32
6122.87
6111.53
5812.12
5451.43
4509.18
3222.88
2473.05
2109.71
1611.76
1511.13
1423.98
1412.98
1382.45
1376.86
3696.51
876.714
895.707
934.163
956.485
1023.82
1092.37
1163.18
1343.26
1917.26
3138.09
4324.69
5113.94
5601.41
5971.92
6130.67
6207.74
5978.41
6014.3
5577.78
5387.33
4082.82
2978.73
2552.59
1947.85
1631.75
1539.21
1430.93
1412.73
1387.85
1368.46
3681.28
880.553
909.767
907.528
928.889
950.023
983.418
1104.57
1146.52
1290.37
1659.5
2703.81
3955.2
4836.79
5383.43
5802.09
5978.39
6080.92
5869.83
5888
5492.6
5270.79
3664.57
2839.18
2641.19
1868.81
1639.68
1540.52
1440.73
1418.29
1386.15
1361.29
3660.66
883.829
924.363
915.986
920.555
926.056
976.346
978.033
1059.29
1136.16
1264.13
1532.93
2202.92
3503.36
4493.54
5163.93
5633.08
5853.37
5960.55
5758.34
5716.29
5346.11
4962.87
3324.02
2767.99
2679.04
1843.58
1629.64
1537.6
1445.02
1419.12
1384.12
1356.33
3635.95
866.245
921.497
936.95
928.612
933.883
922.956
974.092
956.067
966.263
1131.88
1249.84
1425.97
1892.41
3176.99
4279.86
4975.79
5483.36
5757.03
5892.73
5677.59
5683.57
5421.42
4390.43
3048.04
2724.83
2767.76
1870.89
1622.13
1544.94
1450.32
1417.75
1383.12
1356.66
3608.94
794.614
878.348
934.58
949.327
933.177
936.706
919.112
932.048
942.675
975.004
1122.11
1214.94
1289.71
1652.77
2873.87
4104.04
4848.89
5428.95
5701.2
5841.47
5492.1
5509.41
5406.63
3903.93
2864.26
2750.94
2819.43
1882.01
1629.56
1536.65
1452.37
1416.9
1381.66
1354.91
3576.32
758.485
802.603
881.477
941.476
953.88
933.896
925.659
912.819
899.996
975.061
996.329
1069.32
1131.87
1217.81
1506.62
2525.07
3826.7
4756.25
5364.61
5677.27
5771.51
5431.47
5639.74
5406.64
3477.59
2775.95
2817.64
2797.63
1890.03
1601.47
1533.12
1451.01
1414.02
1384.37
1351.24
3537.9
752.655
764.113
803.566
877.098
951.36
952.606
925.415
913.516
910.215
906.819
994.234
1025.55
1082.33
1159.77
1251.1
1482.16
2323.8
3645.14
4572.85
5292.92
5606.61
5713.74
5265.44
5586.37
5351.35
3252.48
2769.8
2885.06
2589.19
1847.65
1581.82
1527.42
1451.04
1416.7
1380.19
1348.44
3487.39
754.493
756.482
763.662
784.816
891.654
948.256
941.152
926.243
912.53
920.489
942.388
1018.69
1082.12
1130.43
1255.88
1321.13
1442.81
2132.21
3341.79
4357.72
5177.55
5443.02
5509.53
5275.42
5704.59
5230.01
3064.89
2809.31
2889.88
2123.79
1767.48
1583.26
1506.92
1448.22
1412.71
1377.87
1345.08
3425.01
745.33
756.604
756.152
761.81
792.587
890.275
947.103
927.653
931.416
919.513
955.93
1016.71
1099.49
1205.18
1252.34
1327.62
1358.11
1491.58
1947.53
2821.83
4051.01
5087.49
5427.55
5512.74
5279.86
5827.02
4956.74
3017.42
2818.46
2856.1
1900.94
1705.83
1546.07
1473.89
1436.29
1404.74
1355.44
1327.98
3341.14
741.797
745.789
752.708
750.427
743.151
790.815
888.247
939.464
926.673
944.373
952.507
1030.35
1114.02
1208.43
1338.47
1334.74
1345.4
1425.41
1591.75
1817.41
2457.9
3683.94
5031.12
5435.12
5552.31
5336.57
5935.93
4834.69
3016.52
2832.2
2721.67
1739.19
1641.99
1519.6
1447.17
1415.57
1380.09
1319.14
1282.66
3234.48
712.457
742.932
736.842
739.205
726.729
726.677
781.294
885.921
940.558
941.793
975.826
1034.89
1118.43
1261.48
1325.19
1415.28
1359.52
1376.47
1585.6
1677.75
1896.28
2403.1
3311.42
4940.86
5560.19
5767.34
5360.8
6114.56
4556.89
2990.22
2804.62
2419.78
1760.62
1683.22
1501.32
1426.07
1386.28
1345.17
1261.22
1227.72
3098.32
668.281
716.697
734.308
708.508
708.98
698.167
715.724
780.929
887.035
954.989
987.016
1042.03
1139.62
1247.72
1377.09
1406.05
1437.62
1413.86
1523.88
1729.31
1877.36
2081.73
2402.4
3100
4747.32
5578.09
5980.99
5529.26
6272.48
4511.25
3009.8
2719.2
2300.87
2144.26
1704.71
1467.53
1400.69
1346.68
1294.28
1195.21
1164.95
2931.63
660.133
665.392
705.211
705.458
675.231
667.042
686.033
718.005
808.477
938.987
1000.26
1098.18
1157.3
1263.8
1377.91
1448.96
1448.09
1438.05
1554.65
1764.19
1782.94
2106.04
2287.63
2456.37
2937.53
4326.3
5604.6
6089.53
5751.35
6478.34
4495.72
2987.06
2556.83
2346.07
2343.14
1759.43
1491.77
1372.58
1293.42
1228.66
1128.75
1106.51
2737.03
658.506
656.825
658.185
669.728
657.046
634.626
633.862
687.919
760.344
852.392
1033.01
1094.03
1203.81
1282.06
1389.61
1462.05
1492.28
1481.51
1474.46
1823.42
1820.95
1892.85
2211.96
2418.26
2465.14
2786.17
3762.74
5469.42
6113.3
5974.93
6743.95
4550.15
2940.77
2484.24
2414.92
2374.41
1856.28
1481.97
1356.2
1242.07
1160.44
1082.85
1059.96
2521.57
658.581
656.206
645.036
632.171
620.289
618.144
600.665
620.905
721.794
818.587
941.639
1119.08
1206.36
1300.07
1418.57
1479.17
1511.55
1492.21
1493.5
1699.93
1800.87
1907.7
2065.58
2297.89
2431.26
2445.37
2620.53
3292.54
5149.33
6151.81
6277.15
6989.29
4587.72
2834.01
2461.36
2437.4
2238.78
1910.27
1478.39
1340.83
1196.42
1107.35
1063.38
1035.67
2306.18
660.704
653.837
638.383
618.57
592.615
585.826
595.075
592.869
636.432
780.405
899.073
1050.48
1221.95
1313.77
1435.59
1472.96
1505.97
1515
1472.58
1557.4
1797.11
1724.05
2045.76
2282.09
2329.19
2316.84
2345.79
2467.98
2949.25
4704.42
6109.13
6612.22
7231.04
4474.71
2720.56
2469.96
2507.12
2199.56
1976.34
1535.37
1325.39
1168.62
1073.32
1063.36
1034.79
2110.2
678.141
653.325
624.026
601.498
593.472
572.084
574.451
589.139
610.4
694.13
850.941
998.54
1182.9
1304.86
1383.57
1489.64
1499.54
1513.77
1512.97
1478.38
1677.83
1730.11
1854.61
2198.31
2377.06
2260.61
2172.34
2256.85
2396.34
2707.03
4156.91
6020.67
6976.61
7369.11
4472.56
2626.84
2527.64
2575.37
2201.76
2055.49
1567.88
1300.36
1163.01
1068.46
1069.99
1047.8
1977.03
689.678
663.922
628.244
585.616
575.739
574.91
571.548
583.386
610.064
661.545
761.075
952.394
1103.76
1305.84
1375
1459.47
1511.1
1505.52
1516.35
1502.51
1509.97
1733.24
1696.54
2133.49
2284.41
2284.15
2128.45
2099.55
2230.56
2317.04
2565.32
3654.76
5865.47
7332.57
7382.92
4276.66
2621.47
2683.78
2643.47
2256.58
2109.29
1613.98
1302.95
1193.46
1071.2
1073.8
1083.84
1936.67
689.419
679.353
627.193
594.955
561.899
564.93
574.309
582.791
615.679
664.199
742.205
855.236
1060.53
1209.59
1356.76
1444.59
1492.13
1510.34
1511.13
1520.05
1494.13
1563.68
1711.97
1750.52
2266.95
2192.02
2100.47
2073.61
2025.54
2175.81
2282.11
2490.4
3357.99
5320.62
7862.46
7385.74
4004.27
2690.93
2836.76
2735.42
2309.59
2180.52
1714
1336.21
1241.97
1084.52
1102.54
1159.87
1948.04
684.076
677.576
627.375
596.201
561.63
558.725
564.612
586.715
611.142
675.05
737.489
831.636
963.168
1154.88
1311.77
1415.99
1463.26
1498.52
1517.81
1513.4
1514.49
1501.07
1628.38
1681.77
2063.32
2179.88
2056.71
2017.9
1964.65
1868.06
2087.75
2324.99
2490.15
3147.9
5209.84
8452.58
7226.81
3772.98
2815.14
3008.89
2823.6
2392.8
2247.29
1758.91
1353.58
1299.59
1112.63
1144.84
1275.19
2025.14
684.172
670.53
628.445
595.632
565.057
555.024
562.333
581.161
619.188
669.184
754.272
828.525
922.984
1079.7
1228.22
1348.05
1427.42
1464.4
1506.49
1512.14
1509.63
1515.68
1510.52
1653.98
1732.7
2224.23
1961.35
2001.24
1907.51
1800.21
1728.98
1996.28
2375.61
2506.68
2980.37
5253.86
9101.88
6829.82
3699.29
2973.54
3159.53
2869.74
2495.17
2307.42
1819.67
1370.49
1359.65
1151.02
1212.3
1426.16
2208.06
811.404
653.024
620.76
593.279
563.89
558.534
561.182
581.209
620.441
685.077
750.645
846.592
924.953
1004.12
1164.22
1255
1347.98
1435.13
1466.75
1503.09
1512.53
1515.89
1510.42
1518.98
1663.53
1854.29
2029.36
1880.67
1931.81
1779.18
1663.02
1747.25
2067.49
2410.08
2542.21
2999.97
5486.47
9763.04
6307.34
3560.32
3151.43
3319.25
2945.83
2598.16
2362.26
1857.57
1390.41
1416.17
1193.22
1281.2
1605.95
2542.55
921.5
740.904
602.909
588.397
557.397
554.961
564.734
579.092
619.203
681.811
766.791
839.076
929.331
997.922
1073.75
1178.85
1272.78
1361.09
1428.75
1459.65
1505.11
1509.17
1515.57
1510.15
1530.52
1696.07
1945.85
1906.68
1865.94
1783.5
1619.38
1678.36
1954.43
2180.86
2420
2582.24
3045.79
5877.38
10013
5812.1
3587.78
3326.9
3394.79
3131
2733.97
2357.37
1897.5
1400.7
1459.74
1233.04
1346.62
1810.55
2948.89
870.462
954.923
693.345
583.34
561.139
551.334
556.476
585.491
618.415
676.025
747.341
849.456
922.882
999.994
1048.48
1115
1194.47
1276.81
1348.63
1433.14
1456.76
1494.24
1503.55
1512.41
1507.43
1551.49
1760.82
1913.28
1824.4
1835.59
1647.85
1538.92
1827.26
2162
2203.64
2408.97
2645.25
3161
6412.89
10339.5
5461.7
3599.16
3474.18
3439.46
3369.1
2868.74
2353.13
1957.18
1398.94
1469.83
1265.16
1405.08
2017.54
3400.22
1132.85
890.658
928.751
674.52
579.583
554.873
555.28
573.24
626.513
674.808
751.877
833.507
921.516
980.656
1040.68
1087.87
1133
1188.33
1275.95
1354.26
1418.98
1459.06
1487.15
1504.38
1510.12
1513.08
1578.87
1790.5
1838.2
1794.54
1759.67
1549.12
1614.41
1969.29
2196.85
2166.24
2418.25
2794.03
3375.91
7027.94
10374.2
5138.83
3711.73
3575.15
3477.81
3611.29
3014.06
2367.74
2016.67
1409.19
1471.42
1293.33
1452.87
2214.42
3824.29
1685.31
1123.89
960.476
924.017
667.554
581.972
555.684
571.815
618.351
680.552
758.142
834.177
906.886
977.202
1028.25
1079.1
1101.45
1150.26
1193.94
1295.12
1362.59
1416.53
1447.08
1490.23
1495.63
1511.48
1511.5
1611.09
1798.07
1801.2
1756.03
1664.59
1513.13
1839.83
2087.88
2136.89
2096.05
2506
3113.63
3669.16
7684.45
10374
4863.81
3769.54
3618.6
3515.99
3836.99
3153.6
2366.21
2079.9
1407.51
1480.74
1319.87
1487.95
2371
4165.74
1912.18
1722.56
1152.85
1033.45
899.971
664.829
579.746
571.881
615.212
697.545
754.971
832.924
905.67
975.404
1026.01
1057.67
1088.29
1113.6
1161.95
1243.16
1299.4
1358.38
1422.79
1436.75
1472.17
1493.11
1501.34
1511.11
1641.29
1789.2
1752.23
1712.99
1588.42
1523.61
2038.35
2045.76
2024.67
2124.81
2825.25
3531.99
3991.72
8352.91
10517.3
4835.85
3834.04
3630.45
3519.99
3879.56
3260.41
2461.08
2131.45
1406.77
1475.64
1350.28
1500.39
2478.48
4388.22
1871.53
1942.82
1740.63
1035.42
1020.42
866.187
655.353
589.574
611.906
683.922
772.927
829.863
908.615
969.488
1022.31
1055.17
1068.78
1093.09
1129.39
1176.38
1265.47
1320.35
1347.73
1414.13
1431.88
1456.84
1489.99
1493.24
1510.53
1646.29
1748.69
1720.53
1670.88
1547.03
1569.37
2039.97
1930.34
1936.15
2438.86
3282.36
3892.95
4293.19
9021.4
10698.8
4894.11
3889.16
3604.89
3446.24
3717.98
3345.15
2555.6
2162.51
1425.26
1470.07
1377.01
1501.33
2532.3
4497.28
1922.56
1880.11
1962.87
1811.85
1011.15
1031.81
850.876
663.686
615.212
680.036
762.116
850.274
906.832
965.888
1019.59
1052.17
1068.19
1075.75
1096.51
1150.72
1214.73
1301.81
1332.59
1355.81
1397.81
1432.09
1455.73
1474.97
1482.95
1500.08
1668.76
1717.27
1693.71
1611.97
1531.93
1706.25
1913.6
1849.02
1946.69
3003.86
3596.83
4104.95
4583.03
9643.68
10910.7
4988.12
3926.54
3505.49
3307.15
3390.08
3419.45
2612.39
2194.15
1433.52
1467.37
1405.22
1499.5
2545.66
4534.93
2798.23
1930.89
1927.56
2018.37
1524.95
1015.13
984.608
826.51
669.201
684.893
759.521
838.111
909.377
954.23
1013.58
1048.98
1064.83
1076.69
1082.39
1103.51
1171.2
1249.73
1319.62
1349.28
1350.89
1382.76
1421.83
1450.03
1459.86
1476.01
1507.38
1670.38
1695.16
1658.01
1568.07
1533.64
1806.05
1840.48
1807.12
2263.13
3388.43
3690.43
4191.21
4853.16
10212
11139.9
5098.53
3947.27
3398.04
3163.49
3302.58
3487.56
2704.25
2233.4
1453.06
1475.37
1434.43
1497.82
2509.81
4584.22
4082.37
2693.7
1983.19
1994.9
2095.6
1403.79
983.001
990.941
809.012
695.051
762.038
841.804
899.767
941.354
974.226
1028.72
1063.24
1074.66
1082.6
1088.48
1121.22
1194.86
1278.27
1340.91
1360.27
1364.89
1380.69
1408.96
1438.77
1454.79
1466.66
1496.46
1681.14
1665.26
1624.76
1542.44
1536.78
1836.15
1803.49
1884.71
2844.21
3497.52
3704.9
4243.21
5103.97
10685.6
11183.1
5219.54
3997.11
3355.38
3104.73
3271.64
3569.78
2748.8
2260.01
1462.37
1456.41
1466.01
1495.66
2449.77
4621.43
4613.28
3743.07
2637.67
2003.47
2097.03
2186.19
1189.37
988.906
992.033
813.603
773.554
843.577
894.915
931.12
950.078
979.816
1029.54
1070.67
1079.9
1088.63
1100.88
1134.77
1224.07
1308.56
1357
1369.19
1359.81
1382.78
1393.38
1426.86
1443.79
1454.21
1500.13
1663.76
1640.67
1585.93
1529.16
1547.73
1811.2
1790.18
2315.87
3163.56
3454.09
3773.9
4344.96
5368.18
11108.2
11225.9
5338.54
4099.08
3401.49
3111.92
3299.86
3639.5
2812.45
2279.9
1480.49
1447.32
1496.66
1479.27
2374.98
4670.64
4438.81
4497.57
3611.87
2680.3
2106.38
2199.94
2002.1
1090.38
1008.21
976.603
811.597
853.17
897.331
924.508
937.02
955.59
977.754
1026.89
1070.35
1086.06
1094.28
1110.15
1148.38
1236.7
1328.15
1370.2
1374.42
1360.99
1376.25
1402.67
1410.73
1436.25
1444.49
1519.74
1640.6
1617.68
1552.62
1520.19
1565.09
1799.28
1825.07
2834.88
3219.98
3427.66
3986.44
4548.08
5780.99
11383.8
11257.4
5461.43
4221.31
3533.91
3188.08
3335.09
3721.51
2847.87
2283.97
1491.91
1426.45
1527.01
1439.75
2281.66
4807.43
4870.68
4480.91
4218.08
3452.63
2671.9
2198.02
2344.79
1846.85
1053.36
1018.09
984.529
858.477
908.848
919.982
931.368
940.987
953.681
976.779
1035.89
1071.12
1088.45
1101.74
1120.1
1158.28
1249.42
1354.83
1374.93
1372.87
1360.86
1363.86
1394.04
1413.45
1425.52
1434.65
1527.92
1617.28
1588.46
1528.22
1513.97
1583.1
1791.13
1917.33
3065.22
3191.16
3572.73
4364.7
4933.47
6185.42
11530.2
11204.2
5610.62
4324.97
3730.73
3337.35
3540.25
3800.98
2903.35
2305
1513.9
1386.93
1559.69
1375.26
2153.87
4957.48
7724.56
4856.12
4352.91
3884.87
3359.49
2725.39
2317.59
2379.45
1535.62
1015.79
1033.69
953.682
921.183
924.196
927.359
935.206
941.959
952.423
985.137
1030.49
1070.13
1091.3
1105.62
1130.87
1167.22
1258.23
1364.01
1374.89
1372.9
1367.38
1379.37
1393.62
1421.29
1411.65
1430.89
1538.51
1591.81
1564.11
1508.12
1509.49
1605.51
1819.5
2071.69
3138.63
3171.77
4002.21
4904.35
5345.28
6588.95
11596.6
10959.2
5712.87
4406.66
3882.15
3549.34
3747.02
3876.12
2950.85
2308.7
1529.69
1366.54
1598.01
1287.06
1985.79
5081.98
8434.74
7432.87
5119.01
4062.05
3617.01
3233.15
2689.71
2414.76
2422.14
1236.81
1036.94
1063.62
963.871
949.081
929.515
927.285
934.57
939.655
954.93
984.121
1034.61
1069.54
1092.3
1113.81
1140.59
1174.94
1269.53
1365.3
1376.08
1368.05
1365.39
1379.81
1401.69
1414.69
1418.33
1429.2
1543.68
1568.72
1536.48
1498.51
1501.43
1637.45
1860.54
2299.91
3144.74
3219.19
4805.61
5470.66
5718.51
6956
11542.5
10620.7
5931.07
4528.17
3957.43
3709.5
3929.82
3963.3
2999
2323.13
1548.88
1344.22
1647.15
1180.78
1778.96
5155.84
3726.54
7804.32
7101.86
4641.21
3760.74
3369.92
3103.95
2659.31
2509.65
2068.17
1134.28
1060.61
1061.93
998.16
963.602
928.704
926.976
935.033
939.956
953.422
988.512
1039.03
1066.5
1094.26
1119.38
1149.97
1181.1
1271.32
1363.99
1372.81
1364.22
1361.82
1374.41
1400.41
1401.57
1411.84
1435.26
1538.15
1542.21
1513.77
1486.54
1507.08
1676.13
1918.84
2511.16
3185.03
3479.45
5421.47
5798.8
5985.82
7206.61
11286.5
10315
6399.2
4852.23
4034.24
3745.25
3987.85
4027.25
3045.05
2333.32
1560.43
1336.62
1704.98
1065.55
1556.47
5127.93
2151.51
3699.76
6128.32
6018.91
4451.83
3480.3
3176.75
2933.76
2544.91
2519.14
1683.06
1082.65
1095.84
1072.39
1008.28
966.717
930.722
928.959
939.209
940.474
956.457
988.41
1033.1
1074.83
1098.72
1128.02
1154.52
1191.31
1270.65
1361.45
1363.85
1348.67
1354.99
1372.04
1394.85
1405.87
1404.49
1431.76
1541.68
1517.34
1489.11
1476.1
1506.64
1726.37
1990.53
2668.46
3241.42
4330.62
5935.59
5891.95
6337.31
7710.81
10728.9
9993.15
6982.14
5520.08
4326.03
3819.77
4126.98
4110.03
3090.93
2331.64
1574.25
1323.64
1779.37
955.67
1355.75
5037.88
2411.84
2087.74
2169.79
5540.38
5331.65
3858.51
3226.88
3003.38
2753.6
2508.85
2302.57
1316.98
1082.34
1120.1
1078.41
1006.01
966.691
930.264
928.72
942.879
941.99
955.927
992.941
1040.98
1077.81
1103.45
1132.99
1161.62
1203.46
1273.97
1356.46
1340.44
1316.88
1336.83
1373.6
1390.45
1408.98
1397.5
1425
1513.8
1494.81
1465.11
1464.22
1512.41
1775.88
2076.21
2786.18
3370.98
5110.97
6077.36
6069.13
6833.65
8752.26
10050.6
9760.5
7468.91
6302.32
4998.16
4229.45
4327.61
4172.09
3128.75
2334.98
1581.38
1325.95
1864.8
862.681
1199.59
4855.63
3114
2411.18
1918.1
2188.3
4536.86
4289.02
3485.53
3063.38
2778.65
2591.03
2463.82
2036.26
1137.39
1089.67
1106.7
1049.79
1001.7
965.897
938.723
938.143
943.108
941.62
959.436
988.856
1045.97
1091.37
1110.61
1137.49
1170.93
1215.92
1279.14
1334.61
1298.97
1271.84
1306.28
1353.47
1391.78
1400.83
1381.55
1412.03
1489.13
1471.9
1450.1
1454.34
1524.11
1834.3
2160.88
2880.91
3619.51
5604.92
6070.52
6505.21
7313.1
9771.13
9595.13
9775.6
7764.04
6777.59
5715.83
4882.46
4504.39
4214.53
3170.36
2355.52
1592.69
1313.63
1967.22
799.712
1081.69
4606.41
3314.39
3684.07
2340.83
1864.62
2203.75
3744.75
3610.65
3165.19
2762.21
2571.11
2468.94
2314.2
1661.05
1065.98
1102.7
1075.26
1033.73
995.779
965.986
941.808
942.151
943.641
947.833
958.341
989.163
1057.74
1097.9
1118.07
1140.8
1183.55
1226.24
1269.7
1300.75
1254.58
1238.57
1263.2
1332.47
1372.84
1371.99
1336.94
1376.42
1461.69
1452.57
1434.94
1444.49
1550.05
1882.73
2256.35
2978.52
3945.28
5870.91
6491.44
7406.93
8277.66
10004.1
9441.77
9859.45
7924.94
6915.66
6011.73
5229.32
4584.11
4284.3
3203.71
2357.25
1599.26
1312.51
2076.8
762.632
1006.06
4308.97
2408.4
5060.05
3896.25
2008.16
1906.04
2102.63
3268.97
3145.03
2764.12
2543.28
2450.05
2344.27
2159.69
1214.52
1055.99
1085.38
1045.59
1013.5
992.328
965.943
949.511
947.454
950.091
949.163
957.813
1010.06
1082.61
1105.62
1126.22
1145.71
1195.91
1231.18
1265.86
1256.24
1220.89
1204.83
1222.54
1299.02
1345.42
1321.79
1273.77
1338.33
1430.85
1431.58
1422.84
1451
1571.35
1937.59
2336.69
3108.14
4257.15
6150.16
7256.88
8069.76
9874.04
9596.59
9452
9966.94
8046.78
6858.91
6007.97
5174.87
4736.59
4315.84
3241.02
2361.87
1612.07
1310.92
2191.81
755.958
962.182
3993.03
2196.3
3804.93
6228.35
2738.52
1943.39
1957.62
2162.87
2663.84
2757.53
2584.02
2401.76
2322.35
2204.46
1833.8
1072.61
1058.42
1046.35
1026.86
998.389
989.22
965.004
954.716
953.382
950.03
947.818
955.956
1032.16
1093.24
1117.71
1130.8
1156.44
1205.88
1234.47
1251.73
1229.43
1195.75
1180.74
1189.56
1255.03
1291.75
1250.25
1204.57
1284.21
1398.54
1415.12
1406.23
1454.2
1603.13
1978.33
2424.05
3253.84
4541.3
6476.6
8237.46
8261.54
11374
8974.04
9478.86
10039.5
8130.14
6777.73
5915.52
5077.13
4774.61
4344.24
3271.73
2377.08
1622.96
1327.86
2296.77
760.04
949.708
3674.19
2210.64
2641.63
6634.21
5344.32
2257.97
1952.45
2054.35
2161.37
2472.73
2564.64
2401.92
2321.34
2179.45
2085.5
1368.37
1036.68
1046.02
1031.41
1001.5
990
984.86
964.612
960.338
960.294
950.51
946.675
970.055
1056.33
1107.23
1125.32
1140.7
1167.78
1211.65
1234.03
1230.82
1209.54
1177.22
1155.05
1154.56
1206.41
1217.49
1166.16
1119.9
1229.6
1360.49
1392.49
1405.71
1455.49
1642.08
2022.61
2508.72
3418.28
4828.69
6881.42
8855.38
8658.61
11071.7
8633.41
9392.15
9997.69
8179.37
6725.15
5892.74
5068.46
4797.5
4353.7
3286.68
2390.95
1637.05
1344.27
2367.9
773.347
949.995
3377.6
2319.27
2570.99
2991.48
9091.22
3592.49
2192.57
2014.49
2117.55
2197.72
2380.83
2398.02
2301.69
2135.76
2074.53
1873.31
1100.54
1034.02
1031.92
1003.71
986.616
986.001
979.624
969.699
966.005
965.567
955.764
947.295
983.419
1072.73
1126.75
1135.99
1149.24
1179.87
1218.2
1233.61
1215.93
1199.14
1153.53
1122.67
1106.16
1136.13
1115.87
1063.83
1027.76
1161.61
1330.72
1371.41
1398.07
1461.8
1680.41
2061.09
2608.21
3575.04
5118.64
7294.26
9051.01
11195.1
9652.21
8526.99
9223.77
9851.62
8165.14
6735.29
5911.4
5150.89
4913.18
4335.88
3298.91
2406.68
1648.42
1361.08
2381.05
802.56
952.221
3120.76
2457.32
2551.84
2836.49
6106.5
8865.87
3165.4
2148.73
2100.73
2174.23
2259.43
2271.49
2309.16
2167.99
2070.5
1984.37
1507.83
1037.2
1012.73
1003.36
985.841
987.953
981.423
977.81
971.086
970.351
967.175
954.467
947.69
995.756
1103.63
1138.38
1146.41
1158.95
1192.71
1222.38
1223.68
1208.96
1187.74
1119.57
1079.81
1046.04
1053.99
1007.48
959.555
941.754
1105.26
1302.48
1379.01
1386.78
1472.31
1722.52
2109.4
2704.97
3736.97
5395.92
7633.53
9271.48
11740.5
8691.7
8491.72
8930.77
9585.46
8069.81
6740.46
5930.9
5240.17
4955.94
4326.57
3277.6
2419.22
1660.98
1377.55
2373.17
847.433
964.695
2929.46
2584.36
2636.44
2684.04
3377.78
14430.5
7044.83
2967.34
2231.57
2168.76
2259.25
2298.21
2269.79
2154.06
2017.92
1952.14
1885.54
1160.69
1037.76
996.291
983.022
985.812
980.344
975.198
976.485
973.599
974.967
967.304
954.224
955.3
1016.28
1126.95
1157.08
1154
1169.5
1205.13
1223.91
1215.99
1207.24
1159.03
1084.08
1015.43
979.168
949.884
897.881
858.644
868.059
1071.88
1300.11
1364.86
1395.9
1487.67
1759.92
2153.5
2806.16
3889.65
5665.6
7894.69
9672.51
9801.25
8311.79
8395.41
8540.36
9245.39
7902.05
6724.7
5939.59
5293.27
4984.9
4279.87
3262.69
2439.12
1669.14
1397.7
2367.75
905.184
988.109
2832.76
2666.11
2723.91
2651.66
3188.63
4033.04
19839.7
7028.36
3110.5
2401.67
2279.97
2360.1
2310.61
2136.35
1997.86
1955.96
1920.28
1647.28
1071.46
1030.04
964.392
974.713
977.803
976.816
974.664
975.322
977.592
976.506
966.985
948.277
958.799
1043.67
1156.34
1166.82
1165.08
1181.25
1218.46
1224.33
1212.23
1200.13
1126.27
1043.3
949.89
888.212
853.948
787.54
776.284
815.489
1072.92
1294.09
1357.07
1401.66
1511.56
1799.26
2208.15
2903.9
4029.63
5886.08
8180.48
9728.57
8653.33
8228.42
8226.1
8090.81
8843
7679.39
6675.51
5934.21
5307.72
4975.29
4243.09
3239.42
2457.12
1671.55
1407.31
2332.35
974.331
1020.62
2819.8
2722.44
2783.91
2740.64
2855.6
4233.24
8894.9
20664.7
6088.7
3333.89
2619.73
2371.89
2401.88
2277.09
2077.64
1938.32
1901.41
1913.74
1185.29
1070.19
1009.39
951.637
971.388
969.585
974.196
976.716
980.464
982.085
977.838
966.306
946.774
965.248
1072.73
1175.36
1178.98
1174.02
1196.56
1226.72
1222.87
1209.66
1187.1
1076.67
990.339
869.831
802.115
753.381
705.289
712.417
788.417
1070.67
1325.34
1369.83
1420.34
1529.26
1840.6
2259.6
2999.35
4155.96
6111.32
8396.37
9529.27
8372.33
8172.89
7959.68
7602.95
8420.64
7439.77
6576.19
5895.96
5285.42
4930.25
4164.42
3225.7
2479.29
1663.8
1415.63
2299.49
1046.54
1060.45
2839.01
2754.03
2844.13
2782.21
2876.42
3340.61
5714.25
14114.6
20652.3
7199.6
4016.79
2781.7
2387.71
2410.1
2132.49
2015.03
1918.7
1919.89
1678.02
1064.93
1061.24
968.28
954.687
961.467
970.163
970.275
973.442
982.213
987.397
976.583
964.481
945.781
971.98
1107.99
1195.34
1183.77
1187.4
1212.9
1229.02
1217.96
1204.05
1162.87
1013.7
932.054
804.92
716.162
685.032
650.095
681.087
776.848
1145.42
1335.5
1378.38
1431.2
1556.87
1880.25
2318.59
3087.05
4282.51
6255.2
8516.75
9092.26
8326.38
8046.16
7589.15
7080.78
7984.53
7176.27
6467.05
5817.95
5221.81
4845.78
4092.28
3194.63
2479.95
1656.75
1418.4
2271.06
1117.91
1110.4
2867.39
2827.84
2890.7
2885.94
2887.81
3282.37
4140.22
5321.16
18438.1
18630.4
9026.23
4065.03
2552.24
2398.1
2350.13
2087.77
2009.89
1933.57
1888.94
1194.47
1059.34
1031.6
958.415
945.236
960.066
967.715
966.691
974.477
989.126
990.075
973.994
957.833
941.782
992.178
1147.24
1204.15
1194.78
1200.45
1224.99
1227.65
1210.83
1188.88
1113.48
956.226
870.76
752.377
677.74
641.412
636.767
672.221
814.46
1174.42
1366.56
1396.23
1442.79
1577.43
1921.35
2367.3
3154.63
4381.7
6421.35
8425.85
9005.85
8261.51
7890.49
7161.88
6553.95
7563.7
6927.03
6316.79
5723.59
5127.69
4749.17
4026.51
3174.45
2480.52
1657.72
1418.09
2172.36
1181.62
1171.13
2899.32
2878.08
2951.56
2950.86
2976.6
3280.88
3819.68
4809.09
7125.46
20595.2
18883.4
6595.3
3330.96
2324.77
2413.69
2224.19
2098.1
2021.76
1944.77
1661.06
1041.67
1052.76
997.701
957.927
937.467
956.049
963.363
963.691
973.673
993.052
990.118
968.09
945.152
945.94
1015.75
1170.23
1217.46
1203.72
1213.11
1225.86
1225.03
1198.48
1158.76
1045.76
904.181
817.858
725.48
669.253
635.718
637.804
681.723
842.956
1224.09
1379.68
1405.24
1453.73
1610.27
1955.69
2421.57
3223.8
4476.87
6480.28
8367.84
8816.49
8083.12
7680.96
6715.44
6046.13
7154.49
6675.83
6153.16
5602.04
5014.7
4631.86
3932.82
3139.67
2446.66
1663.73
1419.34
2070.23
1235.38
1243.53
3011.08
2957.39
3025.99
2998.74
3089.21
3263.71
3776.3
4092.9
4971.69
7316.76
19278.3
13418.1
4765.02
2399.08
2366.22
2304.95
2210.34
2135.76
2029.76
1925.54
1147.62
1040.17
1016.23
981.586
954.628
940.104
956.539
959.186
963.011
984.957
995.802
989.012
958.38
932.266
950.408
1053.35
1199.99
1222.5
1216.1
1213.23
1225.66
1213.97
1176.97
1113.52
970.224
855.171
780.859
722.318
669.281
638.428
640.886
708.618
895.409
1245.56
1395.25
1417.27
1465.94
1637.48
1984.88
2458.82
3281.63
4559.13
6497.52
8254.6
8532.28
7860.98
7472.84
6272.06
5562.62
6770.88
6450.49
5969.02
5472.41
4890.21
4509.1
3837.37
3124.55
2434.53
1664.5
1415.66
1953.29
1277.33
1322.65
3147.26
3024.46
3128.03
3091.12
3163.34
3305.87
3729.17
4040.75
4202.95
5258.86
7252.46
15791.4
7062.34
2602.34
2360.47
2348.98
2274.88
2243.69
2169.95
2042.83
1592.83
1043.33
1029.85
988.324
973.111
942.909
934.972
957.588
960.369
962.428
989.727
997.275
981.476
945.652
930.815
961.938
1090.01
1211.68
1221.07
1217.36
1214.72
1220.05
1193.45
1140.88
1059.82
910.917
824.382
773.885
726.202
667.678
640.983
663.362
751.631
924.114
1282.86
1395.66
1424.48
1481.76
1671.21
2003.05
2499.73
3328.45
4626.29
6502.42
7954.01
8217.09
7543.09
7199.29
5844.99
5120.99
6418.23
6226.01
5789.58
5327.85
4757.01
4382.59
3739.5
3105.58
2402.15
1660.01
1403.11
1862.13
1310.01
1404.2
3322.63
3128.46
3211.41
3194.9
3237.88
3428.47
3724.74
4064.68
3984.39
4426.59
5402.33
8234.54
9481.3
3003.74
2408.35
2374.75
2340.14
2310.71
2309.57
2185.67
1966.49
1146.34
1037.89
991.407
972.609
958.659
930.675
939.23
957.887
948.28
957.472
998.034
996.561
970.275
931.052
926.718
986.832
1131.58
1210.69
1221.27
1216.62
1208.06
1208.25
1168.49
1099.04
1011.27
886.884
817.886
776.426
730.703
666.19
660.585
707.374
804.209
970.469
1305.92
1404.32
1436.73
1500.64
1696.79
2022.17
2536.14
3363.87
4667.29
6432.54
7712.64
7674.29
7184.13
6897.02
5443.76
4710.98
6102.09
6017.89
5609.79
5183.76
4622.96
4260.04
3686.09
3094.07
2386.67
1669.75
1378.41
1762.84
1334.37
1482.43
3443.81
3245.57
3324.26
3279.61
3309.87
3413.6
3714.54
3880.67
3935.07
4023.82
4994.9
6400.32
9771.95
3796.51
2553.03
2411.1
2428.76
2381.89
2380.56
2343.12
2168.62
1486.37
1100.62
1002.2
969.044
964.494
944.331
931.076
936.219
949.073
941.393
974.41
999.401
995.612
955.802
921.071
941.415