/*--------------------------------*- C++ -*----------------------------------*\
| =========                 |                                                 |
| \\      /  F ield         | OpenFOAM: The Open Source CFD Toolbox           |
|  \\    /   O peration     | Version:  2212                                  |
|   \\  /    A nd           | Website:  www.openfoam.com                      |
|    \\/     M anipulation  |                                                 |
\*---------------------------------------------------------------------------*/
FoamFile
{
    version     2.0;
    format      ascii;
    arch        "LSB;label=32;scalar=64";
    class       volScalarField;
    location    "100";
    object      p;
}
// * * * * * * * * * * * * * * * * * * * * * * * * * * * * * * * * * * * * * //

dimensions      [0 2 -2 0 0 0 0];

internalField   nonuniform List<scalar> 
370500
(
-1549.47
-2342.33
-3939.33
-2356.81
-5589.37
-6901.7
-1450.01
-5706.98
-9233.26
-9995.86
3274.08
-5245.56
-9028.79
-12853.2
-13219.3
1141.06
-3273.06
-9669.96
-12604.5
-16651.9
-16515.6
-417.732
-1560.8
-8482
-13790.9
-16235.9
-20454.1
-19946.7
-11909.4
70.2872
-5674.28
-11047.9
-17742.5
-20163.2
-24365.9
-23414.8
-34729.8
-24783.6
-1612.14
-10394.8
-16907.3
-21924
-24070.1
-28253.7
-27038.5
-54159.8
-69163
-20155.9
-7808.08
-14832.9
-23562.4
-27348.6
-28133.1
-32199.3
-30689.5
-68500.3
-107571
-59256.1
-24266.7
-14840.1
-19515.6
-28626.7
-32925.7
-32262.1
-36179.5
-34472
-77907.7
-136066
-92051.2
-48589.2
-34423.9
-21631.5
-23880.1
-31613.3
-38309.6
-36542.3
-40192.5
-38289.3
-81082.6
-154850
-116664
-73848.2
-52999.9
-41397.9
-26763.9
-28737.4
-35418.1
-43340.3
-40987.3
-44215.9
-42214.1
-81973.6
-161061
-133255
-92697.7
-76075.8
-57899.9
-44302.2
-31428.5
-33471.5
-39424.6
-48329.9
-45527.4
-48253.8
-46180.6
-79081.4
-162888
-138579
-105545
-94058
-82572.1
-58948.9
-44226.9
-36812.9
-39199.8
-45385.9
-53567.4
-50219.6
-52291.7
-50216.1
-75754.9
-157016
-140080
-109431
-106277
-101020
-82194.6
-61106.2
-44050.3
-42529.3
-45151.8
-50785.9
-58970.6
-54971.7
-56350.2
-54296.1
-68595.2
-150305
-134652
-110548
-109332
-113761
-99596.3
-83189.5
-64301.8
-46331.8
-48929
-51587.3
-55579.3
-64096.9
-59833.7
-60388.2
-58425.6
-60493.7
-135869
-128432
-106359
-110550
-116268
-111712
-99324.3
-85413.3
-68071.4
-51036
-55795.8
-58401.8
-58833.2
-68987.1
-64635.8
-64484.1
-62588
-50512.4
-119767
-115167
-101227
-106480
-117475
-115251
-110738
-100483
-87531.2
-72975.9
-56229
-62626.4
-65402.9
-64619.9
-73986.7
-69538.9
-68506.3
-66792.2
-40150.2
-99900.7
-101066
-90643
-101809
-113253
-115560
-113895
-111182
-101626
-90159.8
-78188.6
-62110.2
-69909.7
-73534.9
-70102.1
-78944.5
-74349.2
-72626.2
-70994.1
-29528.3
-79351.9
-83641.1
-79593.2
-91446.1
-108247
-111120
-113779
-113872
-111653
-103058
-93314.7
-83913.4
-69283.4
-78315.1
-80410.7
-73731.9
-83968
-79223.5
-76645.6
-75233.7
-19368.2
-58315.2
-66021.6
-65969.3
-81068.8
-97489.7
-105130
-108833
-112444
-113515
-112244
-105003
-96945.5
-90262.5
-77892.4
-87464.2
-87699.7
-78403.5
-89083
-84018.6
-80780.3
-79419.1
-9912.92
-38322.8
-48032.1
-52395.6
-67840.6
-86263.9
-94496.3
-103256
-107896
-111928
-113359
-113240
-107316
-101206
-96800.7
-87635.9
-96484.3
-94758.7
-83079.3
-94114.6
-88843.5
-84816.4
-83647.7
-1902.22
-20005.7
-30694
-38105.2
-54453.7
-72079.8
-83954.9
-93161.1
-102984
-107405
-111813
-113374
-114593
-110179
-105813
-103673
-98066.5
-103513
-101028
-88336.2
-99450
-93595.4
-88958.5
-87811.5
-97.2297
-4549.69
-13451.6
-25458.2
-41186.5
-58384.7
-70476.6
-83131.2
-93059.4
-102299
-106466
-112026
-113849
-116221
-113365
-111141
-109624
-108189
-109237
-107023
-94924.9
-104610
-98387.3
-93026.1
-92010.1
-588.317
-1609.05
-4235.06
-14720
-28814.9
-43868.9
-57390.9
-70410.7
-83513.2
-92695.6
-101693
-105832
-111926
-114192
-118365
-117160
-116829
-115048
-116336
-114652
-112400
-101488
-110056
-103189
-97175.4
-96129.9
-580.583
-2226.99
-3361.14
-7622.6
-18159.2
-31080.3
-44081.2
-58119.7
-71235.9
-83591.1
-92524.3
-101426
-105312
-111841
-114870
-120703
-121219
-123383
-119396
-121758
-120029
-117524
-107428
-115254
-108018
-101276
-100274
-569.131
-2171.97
-4092.73
-5312.47
-10331.4
-20341
-32746.8
-45751.2
-59609
-71966.3
-84124.1
-92600.9
-101425
-105065
-111557
-115625
-123676
-125990
-130814
-122988
-125932
-125133
-123794
-113073
-120505
-112861
-105439
-104350
-514.394
-2398.14
-3991.62
-6288.72
-8095.37
-13082.1
-23178.6
-35220.5
-47829.3
-61071.9
-73099.1
-84816.4
-93137.2
-101600
-104682
-111292
-116794
-126666
-131241
-139090
-126605
-130744
-129972
-131894
-119271
-125667
-117702
-109570
-108428
-184.266
-2619.56
-4274.67
-6151.95
-8811.45
-11484.2
-16149.9
-26416
-38073.5
-50148.2
-63045
-74571.4
-85996.1
-93765.4
-101829
-104461
-110942
-118069
-130464
-137298
-147972
-132543
-136771
-135211
-140898
-126320
-130932
-122529
-113738
-112428
-459.86
-1516.78
-4401.73
-6593.57
-8509.02
-11603.6
-14710.5
-19747.8
-29975.4
-41293.2
-52996.6
-65411.3
-76470
-87258.2
-94616.3
-102398
-104054
-110699
-119713
-134414
-144203
-157355
-140473
-143763
-141697
-149882
-133947
-136329
-127363
-117873
-116410
-392.11
-1679.34
-3678.22
-5955.91
-9064.06
-11210.2
-14370.1
-17944.8
-23983.2
-33885.3
-44926.8
-56234.2
-68230.9
-78738.6
-89132.1
-95653.9
-102935
-103845
-110185
-121348
-139181
-151841
-167337
-148398
-151520
-149179
-157846
-141326
-141879
-132159
-122040
-120363
-537.385
-1646.39
-3276.78
-5703.6
-8013.42
-11595.4
-14067.9
-17574.2
-21449.9
-28272
-38249.7
-48723.1
-60178.1
-71492.1
-81460.2
-91117.2
-97049.5
-103884
-103473
-110013
-123488
-144522
-160276
-177665
-157324
-159729
-157393
-165057
-149210
-147581
-136999
-126179
-124285
-693.433
-1589.51
-3463.31
-5098.46
-8018.45
-10294
-14417.6
-17236.8
-21142.8
-25610.6
-32512.9
-43783
-52815.5
-64413.5
-75034.3
-84651.6
-93726.1
-98646.1
-104851
-103350
-109642
-125723
-151143
-169911
-188391
-167467
-169203
-166233
-173222
-156987
-153343
-141780
-130330
-128178
-588.567
-1824.24
-3021.07
-5153.1
-7292.04
-10560.6
-13024.1
-17080
-20585.1
-24668.8
-30169.5
-37157.1
-49686
-56705.7
-69303.7
-79202
-88372.6
-96675.4
-100815
-106327
-103141
-109429
-128476
-158299
-180574
-199781
-179004
-180260
-175751
-183287
-164836
-159290
-146629
-134412
-132081
-553.045
-1721.35
-3270.64
-4618.77
-7106.94
-9562.7
-13156.8
-16078.9
-20098.8
-24171.9
-28433.8
-34624.6
-42399.7
-55638.3
-61816.6
-74245.2
-83853.9
-92815.1
-100294
-103328
-108019
-103033
-109173
-131623
-166368
-192309
-212096
-191788
-193200
-185888
-193116
-172812
-165217
-151373
-138482
-135941
-583.575
-1718.84
-3202.68
-4862.32
-6448.93
-9251.19
-12061.7
-15698.9
-19568.6
-23538
-28026.3
-32781.8
-39488.6
-48199.4
-61020.2
-69112.9
-79139.3
-89378.4
-98024
-104615
-106473
-110338
-102910
-109374
-135799
-174855
-205065
-225533
-206592
-207135
-196063
-202276
-181230
-171380
-156174
-142488
-139830
-631.415
-1777.9
-3237.29
-4798.47
-6631.73
-8482.7
-11563.4
-14767.3
-18847
-22981.5
-27194.7
-32144.3
-37739.4
-44757.7
-54143.2
-65632.7
-78137.7
-84102.5
-96143.3
-104284
-109888
-110529
-112957
-102933
-109908
-141148
-184119
-218952
-240358
-223245
-220564
-206491
-211146
-189964
-177460
-160859
-146477
-143689
-634.205
-1821.34
-3286.88
-4893.81
-6582.34
-8545.28
-10831.3
-13965.3
-17705.5
-21928.8
-26533.4
-31104.6
-36371.9
-43014.2
-50363.6
-60267.4
-71057.6
-87334.8
-91045.3
-104002
-111847
-116152
-115230
-116594
-103119
-111127
-148074
-194098
-234450
-256260
-240611
-232392
-216981
-219543
-198519
-183739
-165552
-150387
-147582
-642.724
-1814.45
-3341.18
-4903.25
-6704.73
-8499.5
-10618
-13308.9
-16737.2
-20879.2
-25197.8
-30222.4
-35262.7
-40949.8
-48575.8
-56409.5
-66733.4
-78342.9
-95201
-101114
-112608
-120670
-124168
-121763
-120600
-103711
-112994
-156581
-204697
-251758
-272413
-257861
-243791
-227640
-228178
-206849
-189885
-170109
-154272
-151457
-613.402
-1881.29
-3361.02
-4994.46
-6684
-8592.48
-10622.9
-12914.9
-15995.4
-19709.3
-24305
-28876.2
-34149.9
-39617.4
-46012.8
-54423.4
-63036.1
-73836.3
-87293.7
-101328
-112820
-122033
-130505
-133373
-129774
-126315
-104754
-115740
-166943
-216551
-270969
-288168
-274052
-255989
-238537
-237322
-214981
-196118
-174600
-158066
-155354
-605.268
-1891.8
-3439.33
-5042
-6783.97
-8550.37
-10664.6
-12819.3
-15433.5
-18871.1
-22986.1
-27712.9
-32792.9
-38303.1
-44450.3
-51468.1
-60627.4
-69790.4
-81162
-96711.5
-108396
-124945
-133571
-142315
-144177
-139631
-133513
-106591
-119498
-178957
-230483
-291534
-303942
-289274
-269206
-249533
-247041
-223188
-202334
-178969
-161807
-159209
-600.356
-1873.48
-3441.2
-5094.85
-6845.5
-8694.84
-10556.8
-12863.7
-15253.1
-18153.3
-21934.1
-26435.8
-31394
-36887.7
-42775.5
-49615.1
-57585.4
-66953
-76706.3
-89107.4
-106069
-118956
-137796
-147478
-154294
-157223
-151753
-142208
-109444
-124653
-193126
-247077
-312523
-320571
-304732
-283074
-260539
-256129
-230987
-208524
-183194
-165437
-163030
-616.596
-1828.72
-3464.39
-5107.81
-6882.92
-8748.2
-10743.7
-12668.8
-15230.9
-17812.4
-21130.3
-25197.2
-30060.9
-35315
-41250.8
-47605.8
-55147.1
-63737.3
-73008.8
-84142.4
-98386.8
-116285
-130904
-152103
-163606
-169847
-171890
-167016
-151252
-113817
-131281
-208613
-267357
-333950
-337852
-320985
-297396
-271191
-264750
-238412
-214722
-187278
-168983
-166719
-621.278
-1792.55
-3420.92
-5163.71
-6880.11
-8772.48
-10803.6
-12846.2
-14983.9
-17720.1
-20602
-24257.3
-28679.7
-33840.3
-39466.1
-45817.6
-52795.6
-60992
-69771.3
-79016
-91971.5
-108239
-127654
-144103
-167677
-181413
-191285
-186747
-185156
-160430
-119764
-140028
-226680
-289030
-357387
-355762
-337911
-312027
-281561
-273401
-245682
-220815
-191141
-172434
-170223
-588.706
-1794.97
-3355.23
-5126.1
-6929.34
-8725.87
-10809.2
-12924.6
-15075.7
-17421.8
-20370.3
-23564
-27607.9
-32334.6
-37884.9
-43872.8
-50703.7
-58222.4
-66880.2
-75964
-85880.5
-100011
-118523
-140067
-159722
-184990
-200662
-214953
-204401
-205246
-169985
-127775
-150693
-246343
-313717
-382140
-375004
-355497
-326968
-291803
-281811
-252626
-226904
-194830
-175653
-173390
-605.687
-1746.03
-3401.67
-5035.27
-6892.03
-8784.18
-10684.6
-12938.5
-15160.4
-17372.9
-20069.8
-23137.6
-26739.9
-31087
-36187.1
-42116.3
-48528
-55881.4
-64240.2
-72812.1
-82544.6
-93777.9
-108562
-129474
-153931
-177153
-203820
-221437
-237972
-226715
-225250
-180832
-136886
-164342
-268598
-339569
-407125
-395888
-373597
-342039
-301825
-289895
-259580
-232782
-198276
-178415
-176135
-595.92
-1775.49
-3331.35
-5066.17
-6790.17
-8738.16
-10711.8
-12744.2
-15230.1
-17403.6
-19847.6
-22815.4
-26142
-30097.6
-34770.9
-40276.3
-46625.9
-53406.7
-61288.5
-70151.2
-78821.5
-89815
-102442
-118069
-142223
-169311
-195268
-223850
-243299
-260692
-252192
-244051
-193690
-147380
-180403
-293014
-367080
-433108
-418252
-391961
-357142
-311732
-297238
-266158
-238313
-201606
-180047
-178405
-579.313
-1752.78
-3330.39
-4983.38
-6796.47
-8636.48
-10664.4
-12704.2
-14942.8
-17610.7
-19726.4
-22438.5
-25742.7
-29247.2
-33659.5
-38614.4
-44579.4
-51315.4
-58594.1
-67164
-76059.3
-85031.3
-97249.9
-110818
-129041
-156254
-185218
-213841
-244769
-266561
-286586
-277644
-262915
-208408
-159790
-199983
-319765
-394688
-460181
-441890
-410327
-372089
-321457
-303955
-272899
-243257
-204764
-180854
-180321
-522.624
-1733.47
-3270.24
-4946.07
-6740.95
-8614.9
-10542.6
-12656.5
-14803.1
-17219.7
-19935
-22171.4
-25200.8
-28775.6
-32587.2
-37403.5
-42714.5
-49099.8
-56240.8
-63922.3
-73430.5
-82433.3
-91786
-105226
-118639
-140981
-170936
-202332
-233105
-266649
-290112
-314442
-304349
-283257
-224806
-175088
-221473
-348224
-423359
-487106
-466893
-428436
-386730
-331189
-309774
-279432
-247616
-207837
-182112
-181934
-537.435
-1619.04
-3236.27
-4873.63
-6690.2
-8567.81
-10503.3
-12511.7
-14754.3
-16940
-19613.3
-22215.6
-24829.4
-28024.6
-31990.8
-36005.3
-41374.4
-46955.2
-53871.7
-61375.3
-69572.9
-79509
-89207.5
-99022.2
-113864
-128959
-153911
-186605
-221118
-252904
-289318
-313296
-342686
-334503
-304879
-243071
-192664
-246759
-377692
-453347
-513555
-493202
-446355
-400977
-340868
-315230
-286026
-251659
-210805
-184323
-183212
-536.74
-1615.26
-3134
-4880.11
-6622.89
-8493.92
-10459.4
-12438.7
-14579.6
-16897.7
-19192.7
-21989.7
-24722.9
-27529.8
-31081.5
-35291.8
-39600.5
-45465.9
-51461.9
-58815
-66652.1
-75554.8
-85507.9
-96630.1
-106831
-122659
-141425
-168691
-203007
-240796
-273569
-312594
-337750
-371764
-366852
-328286
-263503
-212221
-273793
-408296
-485397
-539520
-520459
-464607
-414835
-350573
-320446
-292212
-255380
-213484
-185793
-184121
-409.444
-1698.11
-3124.58
-4850.97
-6653.59
-8412.41
-10380.4
-12396
-14474.9
-16692.4
-19131.4
-21474.5
-24492.7
-27330.9
-30381.7
-34261.1
-38757.6
-43385.7
-49738.4
-56126.8
-64002.4
-72083
-81682.2
-91538.3
-104155
-115072
-132631
-154184
-184682
-219983
-260492
-294911
-336656
-365593
-402345
-401313
-353666
-286401
-233628
-303400
-439480
-518926
-565409
-548086
-484049
-428330
-359931
-325359
-298004
-259052
-215905
-186742
-184705
-453.843
-1563.91
-3283.99
-4782.67
-6630.12
-8434.77
-10317.9
-12300.6
-14427.5
-16560.7
-18905.8
-21396.3
-23913.4
-27084.7
-30086.3
-33289.6
-37644.7
-42345.5
-47430
-54132.3
-61031
-69345.6
-77723.6
-87978.1
-98047.5
-111562
-123781
-144022
-167932
-201638
-237918
-278554
-315954
-362403
-396722
-435032
-438456
-381667
-312229
-257940
-334040
-471661
-554303
-591584
-575990
-505265
-441541
-368941
-330107
-303330
-262562
-218089
-187443
-185057
-489.989
-1704.04
-3115.85
-4817.54
-6595.94
-8428.74
-10320.1
-12259.8
-14311
-16494.1
-18746.9
-21154
-23765.4
-26429.9
-29758
-32911.3
-36326.2
-41064
-46091.2
-51639.4
-58705.4
-66120.8
-74910.3
-83527.6
-94339.3
-105350
-119071
-133186
-156088
-182068
-219387
-256407
-295403
-337089
-389686
-430300
-470292
-478556
-413135
-341254
-285729
-368415
-505153
-590549
-619264
-604524
-528219
-454477
-377555
-334459
-308145
-266165
-220159
-188159
-185272
-571.114
-1716.58
-3137.69
-4792.75
-6619.22
-8423.1
-10318.5
-12219.7
-14259.9
-16354.4
-18660.5
-20958.6
-23512.2
-26185.6
-29039.4
-32504.9
-35823.3
-39460.3
-44611
-49909.1
-56004
-63408.1
-71421.6
-80620.4
-89607.7
-100831
-113117
-126936
-143588
-168848
-196957
-236866
-274146
-313404
-359554
-417811
-465677
-508529
-521890
-449325
-373500
-316822
-405752
-541721
-626693
-649055
-634383
-552482
-467065
-385694
-338610
-312469
-269145
-221999
-188775
-185432
-606.311
-1807.94
-3301.65
-4706.29
-6721.17
-8446.77
-10297.6
-12211
-14198.8
-16293.9
-18499.8
-20851.2
-23271.9
-25887.1
-28734.1
-31668.4
-35319.2
-38865.1
-42708.1
-48181.1
-53885
-60507.7
-68268.7
-76854.1
-86464.2
-95902.2
-107550
-121158
-135433
-154746
-182005
-212495
-254103
-290430
-333662
-384774
-448035
-503569
-550307
-569363
-491522
-409493
-351243
-449626
-579636
-661179
-681263
-665913
-577354
-478999
-393272
-342359
-316033
-272139
-223874
-189366
-185685
-593.153
-1873.05
-3283.63
-4826.44
-6579.17
-8473.95
-10298.5
-12171.5
-14183.5
-16228.3
-18413.4
-20665.4
-23140.1
-25620.4
-28335.5
-31340
-34415.5
-38198.4
-42030.8
-46110.1
-51786.6
-57923
-65113.7
-73291.7
-82364.8
-92384.5
-102403
-114543
-129219
-144601
-166590
-195671
-228192
-271015
-305787
-355628
-412919
-481732
-543847
-596772
-622088
-541632
-449980
-388284
-499357
-619860
-693920
-716221
-698588
-602177
-490135
-400039
-345804
-318994
-274628
-225499
-189896
-186065
-534.327
-1842.4
-3309.87
-4928.75
-6515.92
-8350.54
-10252
-12157.4
-14160.3
-16186.5
-18352.4
-20560.8
-22938.5
-25441.7
-28032
-30842
-34031
-37156
-41225.4
-45299.4
-49594.2
-55445.5
-62113.8
-69802.8
-78415
-88022
-98371.1
-108985
-121847
-137425
-154333
-178842
-209679
-244166
-287490
-322097
-378371
-443203
-517356
-587204
-649300
-681106
-601020
-495762
-428653
-554996
-662629
-726030
-751927
-731196
-625996
-500316
-406004
-348837
-321001
-276834
-227070
-190329
-186475
-427.454
-1751.12
-3287.98
-4926.63
-6754.38
-8418.24
-10265.2
-12167.5
-14122.7
-16163.4
-18281.1
-20476.8
-22803.5
-25219.2
-27836
-30476.5
-33442.8
-36789.8
-40036.5
-44288.3
-48673.9
-53173.3
-59194.3
-66409
-74571
-83484.9
-93749.3
-104414
-115700
-129345
-145959
-164562
-191456
-223934
-260270
-303405
-341377
-401826
-472401
-553425
-634600
-708673
-747030
-670593
-547517
-475426
-614371
-707690
-758599
-787958
-762606
-647973
-509532
-411146
-351416
-322385
-278794
-228371
-190639
-186687
-229.437
-1757.76
-3279.92
-4919.33
-6696.43
-8687.28
-10315.4
-12077.8
-14113.2
-16108
-18246.6
-20391.3
-22693.8
-25066.2
-27579.2
-30236
-33014.7
-36076.2
-39628
-42944.9
-47444.6
-52056.5
-56846.5
-63098.8
-70876.5
-79389.1
-88472.7
-99572.4
-110551
-122445
-137132
-154718
-175237
-204047
-238202
-276464
-319203
-363505
-426856
-498149
-590604
-687052
-775432
-819683
-752433
-606384
-532426
-676900
-753570
-791400
-823918
-792287
-667346
-517688
-415512
-353494
-322860
-280401
-229584
-191086
-186645
22.7415
-1781.51
-3224.85
-4910.92
-6750.51
-8667.65
-10393.8
-12127.3
-14145.6
-16096.8
-18184
-20332.8
-22593
-24922
-27392.4
-29958
-32727.8
-35602.1
-38810
-42517
-46000.2
-50620.6
-55486.3
-60612.2
-67147
-75413.9
-84198.4
-93380.1
-105604
-116717
-129310
-145052
-163750
-186254
-217109
-252304
-292472
-335383
-387191
-453087
-524323
-631458
-745257
-849931
-900444
-850983
-673637
-603796
-741597
-801370
-823580
-858866
-819681
-684211
-524616
-419102
-355043
-322779
-281507
-230506
-191651
-186323
310.154
-1740.24
-3176.95
-4892.29
-6759.79
-8643.22
-10552.8
-12167.4
-14130.7
-16118.8
-18158
-20260.9
-22520.2
-24797.2
-27237.9
-29745.6
-32399.6
-35240
-38280.5
-41572.1
-45460.4
-49141.2
-53886.1
-58916.5
-64450.2
-71368.4
-80077.9
-88880.5
-98784
-111651
-122934
-136112
-153262
-172938
-197478
-230282
-266393
-308304
-352121
-411008
-480069
-555817
-677328
-807792
-932860
-991208
-966829
-753930
-692184
-805157
-855696
-854646
-891154
-844819
-698359
-530244
-421795
-356101
-321971
-282060
-231192
-192347
-185786
722.593
-1585.32
-3095.12
-4870.03
-6776.29
-8675.68
-10505.5
-12435.2
-14205.3
-16084.9
-18184.7
-20244.4
-22441.1
-24702
-27082.2
-29550.8
-32169.3
-34879.4
-37852
-41009.1
-44441.3
-48445.8
-52356.8
-57195.2
-62432.7
-68350.6
-75583.1
-84693
-93732.3
-104693
-117829
-128638
-143391
-161412
-182378
-209016
-243495
-280524
-323987
-369876
-433301
-507998
-594130
-726885
-873822
-1.02431e+06
-1.09152e+06
-1.09652e+06
-849753
-794827
-867207
-914881
-886101
-919859
-868027
-710465
-534234
-423585
-356686
-320870
-281913
-231623
-192938
-185008
1069.68
-1053.87
-3081.89
-4842.44
-6803.5
-8662.63
-10645
-12494.4
-14483.1
-16201.2
-18079.7
-20183.5
-22348.3
-24608.8
-26972.2
-29374.7
-31945.8
-34613.6
-37433.3
-40504.3
-43815
-47352.8
-51511.7
-55641.8
-60606.6
-65964.2
-72318.9
-79849.6
-89286.4
-99012
-111331
-121956
-134954
-150745
-169833
-191969
-220679
-256454
-294575
-339477
-388576
-454543
-535749
-636662
-779227
-943978
-1.12323e+06
-1.19986e+06
-1.23829e+06
-954412
-903453
-931692
-966001
-918938
-945763
-890424
-719310
-536680
-424360
-356784
-319406
-281215
-231971
-193351
-184014
1099.22
-572.278
-2986.95
-4849.27
-6875.6
-8718.74
-10728.3
-12628.6
-14586.1
-16319.9
-18181.9
-20130.2
-22309.1
-24509.9
-26841.3
-29235.9
-31740.4
-34350.9
-37140.2
-40036.6
-43242.6
-46674.5
-50377.1
-54600.6
-58973.1
-64073
-69697.1
-76434.5
-84283.9
-93991.6
-104702
-115853
-126637
-141764
-158262
-178172
-201783
-232449
-269326
-308566
-354948
-407534
-476936
-563097
-678332
-834788
-1.01915e+06
-1.23086e+06
-1.31922e+06
-1.39369e+06
-1.05773e+06
-1.00662e+06
-1.00109e+06
-1.00515e+06
-950452
-970854
-910978
-724948
-537268
-424245
-356386
-317811
-279924
-232351
-193507
-182812
685.201
-554.361
-2821.72
-4543.9
-7018.95
-8850.14
-10845.6
-12818.6
-14664.5
-16537.7
-18226.8
-20220.4
-22240.9
-24433.8
-26730.7
-29089.7
-31566.5
-34124.6
-36824.1
-39706.2
-42712.6
-46041.3
-49573.3
-53463.9
-57778
-62375.5
-67633.3
-73487.3
-80660.1
-88812.7
-98899.3
-110437
-120177
-132646
-148503
-165879
-186698
-211655
-244141
-281871
-322364
-370553
-426359
-500970
-591605
-717361
-892696
-1.10192e+06
-1.3491e+06
-1.45854e+06
-1.56238e+06
-1.14848e+06
-1.09194e+06
-1.0692e+06
-1.03934e+06
-977710
-995287
-927032
-725278
-536249
-423174
-355482
-315905
-278300
-232694
-193424
-181408
210.774
-361.501
-2920.67
-4268.38
-6968.87
-9062.79
-11064.3
-12974.5
-14862.3
-16581
-18539.8
-20316
-22279.4
-24389.2
-26641.2
-28961.6
-31397
-33914.2
-36567.5
-39340.6
-42334.1
-45448.7
-48905.1
-52554.6
-56602.9
-60989.4
-65831.1
-71290.2
-77405.1
-85033.5
-93461.6
-103923
-115485
-125689
-139060
-155316
-173355
-195212
-221649
-255714
-294320
-335991
-386271
-445225
-525397
-622097
-757181
-951721
-1.19452e+06
-1.48015e+06
-1.61318e+06
-1.74364e+06
-1.21398e+06
-1.1467e+06
-1.12346e+06
-1.07086e+06
-1.00115e+06
-1.01471e+06
-934262
-721200
-533470
-421264
-354086
-313792
-276233
-233126
-193053
-179800
78.1996
-510.224
-2572.13
-4156.62
-6980.96
-9159.37
-11277.4
-13315.7
-15046.1
-16806.9
-18611.4
-20598.5
-22354.4
-24323.5
-26532.6
-28837.5
-31234.1
-33728.4
-36308.1
-39049
-41916.3
-45014.3
-48265.2
-51802.1
-55586.4
-59815
-64288
-69365.8
-75032.3
-81430.2
-89480.7
-98173.6
-108919
-120408
-131371
-145617
-161972
-180899
-203801
-231593
-266991
-306491
-349441
-401857
-464295
-549405
-653823
-800309
-1.01394e+06
-1.29545e+06
-1.61924e+06
-1.76268e+06
-1.92179e+06
-1.25512e+06
-1.16743e+06
-1.14911e+06
-1.0932e+06
-1.0176e+06
-1.02434e+06
-929907
-713119
-529264
-418548
-352241
-311403
-274023
-233644
-192498
-177964
62.8176
-688.829
-2363.52
-4211.38
-6940.72
-9350.58
-11388.7
-13677.7
-15421.1
-17010.6
-18743
-20703.4
-22420.3
-24349.6
-26498.9
-28728.4
-31107.4
-33545.7
-36093.7
-38753.5
-41575.9
-44550.4
-47746.9
-51140.8
-54780.8
-58671.5
-63049.7
-67647.9
-72940.6
-78849.6
-85556.6
-93942.3
-103065
-113825
-125428
-137466
-151608
-168749
-188354
-212351
-241526
-278010
-318345
-362692
-417307
-483358
-573012
-685772
-845232
-1.08228e+06
-1.40061e+06
-1.75686e+06
-1.90045e+06
-2.04664e+06
-1.27795e+06
-1.1615e+06
-1.14089e+06
-1.10082e+06
-1.02332e+06
-1.02111e+06
-915459
-701506
-523799
-415027
-349971
-308780
-271616
-234194
-191666
-176033
4.4737
-826.413
-2370.49
-4258.29
-6788.75
-9422.77
-11529.2
-13959.4
-15834.1
-17291.7
-18950
-20726.6
-22588
-24383.1
-26463.7
-28609.4
-30966.4
-33391
-35883.8
-38499.9
-41232.9
-44159.3
-47239.9
-50544.8
-54050.9
-57788.6
-61829.5
-66351
-71082.3
-76598.4
-82744.2
-89767.6
-98379.1
-107990
-118674
-130781
-143051
-157934
-175487
-195807
-220904
-251205
-288913
-329865
-375673
-432472
-502128
-596491
-717148
-890510
-1.15451e+06
-1.50787e+06
-1.8923e+06
-2.03447e+06
-2.08013e+06
-1.28293e+06
-1.1379e+06
-1.10783e+06
-1.09178e+06
-1.01637e+06
-1.00561e+06
-891907
-688228
-517076
-410877
-347337
-305943
-269191
-235007
-190823
-174026
-59.1844
-939.005
-2397.87
-4208.68
-6872.88
-9452.92
-11518.6
-14330.6
-16234.9
-17641.1
-19109.7
-20826.6
-22627.3
-24611.7
-26556.8
-28587.3
-30837
-33247.8
-35670.9
-38265.2
-40938.5
-43771.2
-46790.4
-49989.2
-53363.8
-57036.3
-60856.5
-65022.7
-69667.1
-74563.5
-80290.5
-86665.4
-94045.4
-102907
-112907
-123630
-135981
-148769
-164048
-182166
-203163
-229379
-260697
-299464
-341009
-388408
-447268
-520386
-619521
-747351
-936295
-1.22453e+06
-1.62051e+06
-2.03775e+06
-2.15727e+06
-2.02646e+06
-1.26839e+06
-1.09976e+06
-1.06222e+06
-1.06786e+06
-997464
-979926
-864490
-671889
-509349
-406093
-344338
-302873
-266832
-235999
-189763
-172053
-121.043
-1139.13
-2394.66
-4189.66
-6911.9
-9476.73
-11938.2
-14423.1
-16683.8
-17972.6
-19348.7
-20836.2
-22684.7
-24715.1
-26733.9
-28605.6
-30730.6
-33087.6
-35517.9
-37990.7
-40669.8
-43438.2
-46353
-49485.7
-52796.3
-56215.3
-60026.9
-63956.5
-68283.3
-73038.8
-78113.4
-84050.1
-90665.9
-98345.8
-107442
-117701
-128589
-141084
-154604
-170150
-188809
-210506
-237740
-269999
-309710
-351824
-400775
-461498
-538048
-641622
-776355
-981360
-1.28764e+06
-1.74118e+06
-2.19827e+06
-2.23074e+06
-1.91108e+06
-1.23351e+06
-1.04889e+06
-1.01067e+06
-1.03237e+06
-968627
-946474
-835024
-653151
-500791
-400809
-341011
-299659
-264402
-236327
-188695
-169994
-175.02
-1328.38
-2431.09
-4176.58
-6891.61
-9536.11
-12200.2
-14730.2
-16981.5
-18301
-19601.4
-20930.5
-22633.3
-24712
-26848.4
-28629.1
-30706.7
-32967.2
-35378.7
-37833.9
-40342
-43146.8
-45967.4
-48985.2
-52238.9
-55629.7
-59096.6
-63092.4
-67096.6
-71559.2
-76432
-81696
-87824.8
-94712.2
-102679
-111990
-122468
-133582
-146272
-160077
-176124
-195358
-217727
-245909
-279062
-319541
-362174
-412762
-475076
-555000
-662193
-804367
-1.02229e+06
-1.34405e+06
-1.86159e+06
-2.33724e+06
-2.23175e+06
-1.76572e+06
-1.17875e+06
-990344
-955874
-989535
-933334
-908665
-804525
-632565
-491334
-395113
-337362
-296242
-262166
-236541
-187507
-167890
-226.289
-1441.04
-2637.64
-4161.71
-6850.25
-9634.67
-12416.8
-15141.7
-17369.3
-18704.7
-19833.7
-21027.8
-22594.6
-24686
-26818.2
-28871
-30680.6
-32880.3
-35222.4
-37712.4
-40169.9
-42741.2
-45643
-48556.1
-51673.4
-55056.2
-58489.3
-62056
-66141.4
-70279.8
-74877.8
-79868.3
-85339.6
-91625.6
-98787
-107002
-116473
-127107
-138455
-151399
-165680
-182045
-201864
-224888
-253923
-287840
-328960
-372104
-424194
-487904
-570966
-680900
-830958
-1.05597e+06
-1.39491e+06
-1.95665e+06
-2.39507e+06
-2.16021e+06
-1.61762e+06
-1.11158e+06
-930374
-900164
-942801
-894481
-869005
-774017
-610982
-481498
-388996
-333451
-292733
-259865
-236963
-186402
-165709
-281.899
-1621.87
-2796.19
-4315.5
-6805.61
-9704.9
-12716
-15528.1
-17745.5
-19236.3
-20137.7
-21079
-22470.4
-24658.5
-26872.1
-28921.2
-30773.1
-32817.8
-35086.7
-37512.5
-40020.1
-42533.4
-45201.8
-48189.8
-51192.6
-54404
-57903.1
-61397.5
-65054.5
-69252.4
-73472.7
-78219
-83337.6
-88982.5
-95471.4
-102863
-111320
-120960
-131772
-143329
-156363
-171014
-187847
-208234
-231853
-261712
-296268
-337841
-381479
-435002
-499845
-585733
-697508
-854981
-1.08006e+06
-1.4384e+06
-1.99392e+06
-2.35465e+06
-2.03646e+06
-1.48068e+06
-1.0389e+06
-872879
-845806
-894577
-854388
-829062
-743370
-589699
-470997
-382614
-329355
-289033
-257817
-237310
-185273
-163569
-367.548
-1726.52
-2997.98
-4621.18
-6830.27
-9770.31
-12984.2
-15991.6
-18248.9
-19597.8
-20385
-21088.4
-22196.5
-24575.9
-26809.1
-28953.4
-31003
-32734.6
-35028.9
-37383.1
-39817.2
-42396.7
-44942.9
-47723.9
-50782
-53884
-57185.9
-60771.1
-64344.1
-68097.2
-72338.2
-76710
-81575.9
-86826.8
-92650.6
-99309.6
-106938
-115557
-125387
-136306
-148111
-161284
-176353
-193610
-214543
-238690
-269278
-304280
-346207
-390285
-444949
-510876
-598863
-711919
-874390
-1.09598e+06
-1.46572e+06
-1.95903e+06
-2.23308e+06
-1.88555e+06
-1.35756e+06
-967791
-819053
-793784
-846706
-813958
-789701
-713060
-568967
-460218
-375966
-325094
-285308
-255750
-237984
-184168
-161383
-446.599
-1793.61
-3202.26
-4848.03
-7135.76
-9868.62
-13240.4
-16463.4
-18878.5
-20110.7
-20456.3
-20964.3
-21951.4
-24275.4
-26817
-28761.1
-31005.3
-32941.2
-34941.1
-37236.3
-39654.4
-42126.6
-44768.4
-47418.5
-50305.5
-53412.4
-56622.2
-60005
-63680.8
-67324.9
-71174.6
-75479.5
-79955.5
-84973.1
-90342.1
-96338.4
-103166
-110995
-119774
-129747
-140759
-152705
-166059
-181521
-199243
-220621
-245308
-276524
-311916
-354031
-398406
-454007
-520768
-610242
-723770
-888112
-1.10293e+06
-1.46683e+06
-1.88076e+06
-2.07178e+06
-1.72775e+06
-1.24755e+06
-901610
-768799
-745002
-800183
-773196
-751603
-683523
-548852
-449323
-369100
-320702
-281510
-253950
-238473
-183105
-159226
-520.416
-1852.51
-3350.08
-5121.85
-7364.66
-10046.8
-13487.2
-16980.9
-19527.5
-20758.9
-20635.4
-20594.7
-21599.4
-24048.5
-26741.8
-28588.3
-30953.9
-33018.1
-34834.8
-37198
-39485.7
-41978.9
-44475.7
-47198.7
-49955.4
-52938.2
-56094.7
-59414.8
-62854.8
-66642.3
-70327.3
-74269.2
-78625.4
-83238.6
-88371.5
-93844.9
-100015
-106974
-115001
-123951
-134070
-145124
-157274
-170742
-186669
-204773
-226613
-251671
-283437
-319002
-361277
-405762
-462038
-529510
-619383
-732851
-894931
-1.10289e+06
-1.43923e+06
-1.78221e+06
-1.89866e+06
-1.57696e+06
-1.14781e+06
-840965
-722465
-699580
-755730
-733891
-715116
-654887
-529978
-438157
-362123
-316099
-277775
-252170
-239353
-181987
-157015
-600.412
-1890.37
-3469.18
-5306.5
-7643.81
-10236.6
-13542.9
-17456
-20272.4
-21412.2
-20929.6
-20318
-21065
-23823
-26608.1
-28535.8
-30777
-33033.3
-35077
-37008.6
-39374.8
-41729.6
-44305.4
-46873.1
-49689.2
-52543.8
-55600.4
-58816.8
-62247.6
-65756.3
-69622.6
-73368
-77406
-81832.5
-86552.2
-91808
-97375.8
-103683
-110773
-118941
-128106
-138160
-149298
-161661
-175388
-191605
-210148
-232258
-257807
-290000
-325653
-367801
-412396
-469099
-536786
-626380
-738570
-896319
-1.09191e+06
-1.38755e+06
-1.67418e+06
-1.73086e+06
-1.44034e+06
-1.05708e+06
-785670
-679927
-657471
-713597
-696675
-680297
-627255
-511802
-426924
-355016
-311333
-274077
-250428
-240234
-180960
-154811
-682.403
-1905.34
-3590.17
-5457.6
-7878.92
-10442.1
-13693.6
-17595.4
-20964.5
-22155.9
-21264.5
-19859.3
-20705.7
-23648.4
-26498.5
-28585.7
-30697.4
-32922.4
-35136.1
-37021
-39305.9
-41514.7
-44073.7
-46675
-49351.3
-52222.7
-55173.2
-58307.4
-61596.6
-65120.2
-68711.8
-72638.5
-76446.8
-80531.2
-85054.3
-89890.5
-95211.1
-100864
-107281
-114493
-122867
-132326
-142212
-153347
-165991
-179855
-196501
-215340
-237755
-263570
-296128
-331674
-373613
-418158
-475118
-542626
-630877
-741085
-891032
-1.0741e+06
-1.32191e+06
-1.56405e+06
-1.57558e+06
-1.31777e+06
-975244
-735586
-640774
-618515
-673853
-661290
-647402
-601005
-494416
-415757
-347829
-306364
-270440
-248614
-241498
-179848
-152595
-771.191
-1903.72
-3673.18
-5616.63
-8071.12
-10680.9
-13862.1
-17651.9
-21176.1
-22837.6
-21567.8
-19300.7
-20266.2
-23394.3
-26340.2
-28625
-30626.7
-32824.9
-35105.6
-37192.5
-39042.2
-41504.4
-43846.8
-46421.9
-49111.3
-51867.4
-54815.7
-57841
-61047.8
-64428.4
-68027.2
-71727.2
-75648.8
-79538.7
-83675.7
-88313.6
-93252.4
-98635.4
-104342
-110855
-118147
-126712
-136581
-145884
-157219
-170211
-184342
-201091
-220309
-242854
-269127
-301898
-337236
-378559
-423174
-480067
-546871
-633287
-740133
-882038
-1.04726e+06
-1.24977e+06
-1.45544e+06
-1.43567e+06
-1.20792e+06