/*--------------------------------*- C++ -*----------------------------------*\
| =========                 |                                                 |
| \\      /  F ield         | OpenFOAM: The Open Source CFD Toolbox           |
|  \\    /   O peration     | Version:  2212                                  |
|   \\  /    A nd           | Website:  www.openfoam.com                      |
|    \\/     M anipulation  |                                                 |
\*---------------------------------------------------------------------------*/
FoamFile
{
    version     2.0;
    format      ascii;
    arch        "LSB;label=32;scalar=64";
    class       volScalarField;
    location    "0";
    object      omega;
}
// * * * * * * * * * * * * * * * * * * * * * * * * * * * * * * * * * * * * * //

dimensions      [0 0 -1 0 0 0 0];

internalField   nonuniform List<scalar> 
82460
(
701.668
265.859
605.709
284.326
253.991
496.487
326.279
299.416
272.038
426.192
395.889
336.796
303.517
325.544
359.074
408.605
401.659
340.028
310.274
328.305
307.514
435.687
413.956
400.266
340.925
315.314
312.902
272.979
472.49
437.239
413.268
399.67
345.683
323.87
317.99
248.482
482.339
479.902
435.11
413.921
403.46
352.573
330.908
326.748
227.597
482.428
492.152
483.594
439.226
413.259
406.205
358.336
341.469
337.39
225.594
481.23
491.754
495.382
487.622
435.381
414.12
405.305
367.304
352.344
355.656
221.605
477.601
490.151
495.167
501.456
491.58
438.329
416.323
407.356
371.784
365.61
376.772
188.045
467.42
485.22
493.044
500.876
505.057
495.21
432.535
415.071
406.479
378.951
379.56
403.15
201.75
456.575
474.017
487.944
497.719
504.833
509.66
494.974
428.44
413.382
407.678
385.139
396.01
428.813
214.391
443.196
461.629
475.166
491.196
501.808
509.451
514.951
489.174
426.711
411.846
407.176
390.024
412
453.482
127.998
435.542
449.44
461.521
475.283
494.024
506.012
515.195
519.494
493.976
429.218
410.877
407.375
395.128
429.509
475.576
242.966
435.185
446.119
450.812
461.874
475.183
496.973
511.071
519.903
523.878
487.356
425.466
411.598
406.127
401.122
445.913
501.228
367.486
435.664
445.495
448.424
450.674
461.473
475.343
500.057
515.097
524.318
529.163
487.36
420.608
408.32
406.047
407.598
463.957
521.448
421.975
436.002
446.67
447.851
447.551
451.276
461.286
475.203
502.912
519.53
530.19
533.857
476.797
422.236
408.381
406.048
414.624
480.574
541.269
467.16
434.225
445.094
449.797
450.79
446.071
447.851
460.875
477.374
507.132
525.256
536.143
540.891
476.486
417.031
407.174
405.542
421.813
497.548
559.015
504.558
428.404
440.694
447.544
456.176
450.255
444.599
447.045
463.508
479.458
511.191
531.039
545.806
549.378
480.332
416.377
405.284
406.366
429.308
512.82
576.492
537.342
417.573
431.162
441.157
456.11
456.577
449.114
446.429
447.425
464.494
483.037
517.712
540.574
555.863
558.257
469.402
413.655
402.969
405.883
438.003
527.499
592.755
567.875
409.928
415.869
430.111
449.32
458.309
455.968
448.969
442.088
440.116
466.3
492.734
528.364
550.098
566.786
566.813
467.479
412.474
401.787
406.302
445.66
540.376
608.34
596.817
401.48
404.24
402.772
432.432
452.652
460.211
457.208
448.522
434.702
439.99
472.952
505.449
540.983
560.187
576.05
574.596
470.279
414.505
400.187
406.767
453.506
551.45
623.444
623.65
385.444
389.859
381.302
395.024
432.53
455.773
459.794
455.569
444.027
432.968
441.844
481.117
526.927
555.706
571.937
585.856
581.847
470.36
410.932
401.619
409.145
460.241
560.61
637.512
649.806
364.053
364.389
359.094
367.213
393.373
435.256
455.064
458.556
453.274
441.24
425.174
446.161
498.009
544.456
560.183
580.388
596.789
588.421
464.983
410.17
400.623
410.096
466.389
566.888
651.865
675.482
358.585
353.649
344.5
345.449
356.538
394.539
436.27
454.701
457.555
449.415
432.747
427.932
453.438
512.01
547.451
562.166
589.749
610.641
594.023
469.052
409.682
403.316
412.188
471.606
571.336
664.592
700.929
382.491
366.879
352.054
344.057
340.107
355.928
392.513
436.009
453.228
452.282
439.934
431.075
428.19
462.848
520.7
542.314
566.13
602.453
622.602
599.012
478.609
414.457
403.058
413.096
475.528
573.265
676.668
725.077
564.472
437.53
389.336
364.529
343.542
343.479
355.153
395.435
438.414
450.641
444.373
435.173
425.766
435.211
469.749
502.553
521.637
571.552
613.119
627.915
596.844
474.681
413.35
403.108
414.384
477.771
573.984
686.945
749.164
761.994
772.918
508.15
433.054
382.004
354.72
350.997
360.087
399.66
441.661
447.029
438.702
424.677
424.48
445.548
461.465
460.367
506.682
582.723
626.381
629.445
593.923
480.445
413.546
403.26
415.434
479.89
568.624
696.838
772.268
735.601
864.973
877.22
645.787
492.652
425.584
371.69
360.432
371.742
418.325
451.895
448.622
425.521
417.426
435.151
443.765
425.84
426.004
511.971
596.678
631.29
631.362
594.762
479.074
414.541
403.112
415.663
481.337
561.775
705.234
795.291
712.732
795.599
944.732
1094.54
834.059
592.407
482.078
391.966
370.373
381.91
440.718
462.884
449.167
424.373
434.275
451.727
423.794
368.456
421.525
524.004
604.028
631.251
630.111
591.091
475.38
413.818
402.568
415.767
476.203
554.517
712.922
817.905
707.432
786.108
902.177
1061.85
1196.33
1053.73
697.964
550.901
406.15
373.852
393.015
451.97
470.857
467.695
453.827
465.441
463.371
389.526
357.92
434.578
535.899
609.371
630.951
637.683
601.624
474
413.767
402.37
415.362
467.646
546.62
718.581
840.663
734.983
797.22
902.961
1019.1
1153.47
1282.26
1182.96
811.423
601.486
412.545
368.646
400.275
457.258
483.168
498.814
497.512
515.754
468.01
363.863
372.348
463.338
547.334
614.34
635.59
635.163
597.315
482.74
413.908
405.534
414.594
462.093
539.86
723.931
863.356
815.65
851.49
913.831
1015.06
1162.34
1292.26
1321.4
1250.32
896.274
643.959
407.657
367.115
403.247
465.872
496.363
528.899
552.721
534.827
447.453
364.297
407.521
498.791
554.675
617.414
635.843
639.875
593.183
479.837
420.674
407.328
413.404
456.028
532.216
728.113
886.395
930.071
1004.09
980.268
1065.18
1186.83
1331.94
1454.59
1470.79
1317.44
986.262
657.133
395.067
362.51
411.75
468.209
524.04
557.131
550.543
499.767
409.649
387.123
459.16
525.47
555.339
618.195
642.702
637.613
606.587
478.562
423.972
411.693
412.543
446.936
524.363
732.072
909.367
1071.04
1164.35
1130.35
1207.25
1310.11
1495.82
1737.04
1912.21
1800.7
1461.87
1061.13
604.077
363.361
362.061
408.728
475.28
533.376
542.637
488.186
409.364
380.698
421.915
503.139
534.575
555.959
623.582
646.571
651.802
613.136
503.887
434.444
413.56
411.864
440.111
515.196
735.364
932.527
1443.77
1509.16
1475.91
1572.4
1647.16
2008.61
2478.62
2761.24
2501.14
2054.82
1570.74
982.997
544.697
337.404
357.882
405.957
452.284
498.97
482.593
405.611
368.433
377.056
461.053
535.375
539.522
554.247
625.826
651.911
657.092
635.362
531.354
441.175
415.893
411.412
430.553
507.045
738.811
955.349
1534.24
1877.79
2118.01
2420.25
2520.48
3038.14
3885.08
3830.02
3007.79
2389.57
2042.12
1660.91
964.688
446.44
325.359
354.56
389.62
425.993
453.089
429.36
412.049
392.345
396.183
496.181
564.718
544.006
556.201
632.819
657.893
665.965
645.744
549.99
447.517
418.428
409.74
425.238
499.373
741.668
977.943
1230.94
1408.53
1748.84
2079.34
2464.43
3029.07
3260.09
3023.33
2666.52
2141.78
2066.85
1916.8
1540.37
832.372
339.883
324.144
351.458
384.303
419.252
445.329
448.797
443.519
414.243
416.425
518.014
586.779
539.656
558.174
639.467
665.151
676.293
665.006
564.488
456.622
421.908
409.541
419.631
492.662
743.584
999.994
1109.11
1180.45
1129.91
1311.69
1416.79
1840.78
2223
2533.1
2410.46
2011.65
1813.17
1921.93
1747.82
1500.39
518.496
323.043
337.393
356.462
379.443
419.685
463.834
463.659
453.832
426.941
455.508
558.631
607.227
543.927
565.791
648.404
674.141
683.035
676.141
587.555
466.794
422.343
410.483
416.44
486.557
747.114
1021.47
1215.96
1287.99
1270.35
1335.29
1403.59
1500.28
1675.63
1905.53
2053.76
1997.87
1763.29
1669.68
1691.26
1674.64
1290.8
335.401
338.318
350.179
363.304
391.127
438.742
471.103
474.013
466.164
447.726
475.154
591.235
615.071
540.647
575.413
656.33
679.093
692.273
685.815
601.19
475.598
422.214
408.516
413.092
481.731
749.155
1042.4
1288.07
1359.71
1364.36
1387.29
1404.48
1470.12
1618.77
1770.53
1867.38
1833.81
1771.53
1606.35
1531.92
1577.18
1696.33
511.695
332.849
366.955
363.711
375.083
401.31
446.984
481.256
482.325
473.367
462.735
488.052
611.376
630.362
556.143
582.414
661.96
687.438
697.113
696.433
618.884
482.595
423.804
407.407
410.81
477.459
751.215
1062.5
1364.42
1423.05
1419.85
1475.55
1461.1
1470.58
1552.5
1693.52
1857.53
1830.33
1707.24
1602.13
1493.27
1472.44
1680.64
1320.1
342.055
361.214
387.801
381.652
394.815
417.03
470.263
486.747
491.828
487.085
469.978
516.103
647.244
637.786
563.731
595.96
668.346
691.483
704.799
702.044
632.086
489.017
423.178
406.753
407.945
473.766
751.266
1082.18
1446.33
1491.66
1479.24
1532.21
1551.85
1586.49
1583.83
1603.82
1686.17
1755.74
1716.39
1603.76
1546.36
1470.97
1647.55
1706.79
395.564
346.15
386.481
409.239
403.897
412.218
443.242
481.049
496.148
501.503
494.027
485.704
536.995
683.819
649.041
577.588
601.575
670.816
697.559
708.654
710.687
641.844
492.167
422.375
407.364
405.841
470.541
753.873
1100.79
1575.21
1553.32
1544.84
1583.14
1572.32
1617.44
1676.99
1708.23
1678.87
1665.85
1695.95
1612.14
1572.33
1530.18
1794.33
1789.94
652.451
340.288
367.611
402.37
437.763
425.531
438.739
463.755
494.448
504.891
507.107
508.747
508.808
565.568
747.787
669.965
584.604
610.019
673.975
700.72
716.231
715.874
651.457
496.548
422.331
405.533
403.593
467.64
752.708
1119.12
1824.47
1592.85
1607.27
1632.73
1633.38
1639.25
1695.51
1775.27
1819.44
1780.09
1724.56
1720.18
1677.21
1557.21
1864.27
1914.29
792.117
348.745
344.184
384.112
423.421
462.447
450.636
461.99
484.852
506.137
509.61
522.314
532.833
525.946
580.651
734.182
698.303
605.052
610.513
674.883
707.335
720.941
724.724
658.829
499.03
427.874
403.082
401.493
465.11
752.941
1136.27
2286.9
1720.58
1664.58
1649.67
1683.33
1693.2
1726.81
1796.02
1866.35
1924.39
1917.35
1827.16
1757.06
1654.48
1725.31
2113.5
846.57
387.993
346.858
358.639
391.004
449.458
487.965
468.97
488.105
499.608
511.303
519.332
543.551
543.02
556.112
586.63
742.468
776.726
614.382
607.909
676.649
712.3
729.509
730.424
667.242
503.888
425.052
403.778
399.667
462.778
747.948
1153.28
2698.04
1915.14
1746.17
1689.08
1701.63
1717.83
1755.57
1836.58
1902
1972.63
2024.56
2012.06
1893.89
1797.71
1938.13
2130.43
1294.74
481.29
357.988
361.395
367.814
403.495
476.734
502.531
491.725
509.359
506.379
521.054
539.426
552.086
566.375
581.085
595.278
713.323
803.482
634.639
602.602
677.485
720.985
735.073
739.68
675.988
506.411
424.274
400.967
398.25
460.729
742.692
1169.13
2778.78
2338.21
1861.57
1749.53
1716.16
1730.59
1765.63
1851.12
1945.24
2027.41
2081.72
2093.75
2015.94
1896.97
2109.66
2243.77
1598.01
695.125
394.944
370.793
368.881
375.413
417.119
496.6
515.789
511.741
518.181
516.305
535.986
551.613
570.881
582.196
600.85
613.974
691.318
844.258
657.669
603.409
678.129
726.687
745.725
748.488
685.039
511.084
429.338
402.64
397.013
458.768
739.522
1185.01
2352.32
2688.06
2037.46
1823.89
1754.08
1741.51
1769.85
1854.13
1965.12
2069.76
2148.98
2162.48
2105.51
1999.85
2253.42
2293.32
1524.68
811.65
452.876
404.411
404.182
382.699
389.803
428.072
504.767
528.237
523.557
523.21
533.977
542.86
568.546
586.853
594.484
610.716
629.948
699.227
873.032
703.497
622.124
680.047
736.945
755.196
759.212
697.82
516.288
427.352
401.888
396.616
457.042
735.417
1199.8
1878.11
2653.34
2316.08
1953.84
1810.95
1754.79
1774.15
1853.8
1971.67
2084.94
2191.4
2233.22
2174.72
2091.02
2379.12
2589.48
1567.28
1018.05
476.033
425.949
450.987
449.059
397.361
407.423
435.513
513.932
534.572
528.226
538.341
542.821
552.302
586.933
594.314
598.237
607.5
628.732
691.368
912.224
764.928
638.333
681.015
743.666
765.262
772.821
707.016
519.814
427.393
401.2
396.328
455.195
730.301
1214.7
1760.45
2244.58
2456.1
2133.08
1887.79
1787.99
1782.73
1845.8
1969.45
2087.86
2207.07
2278.9
2238.27
2163.35
2560.31
3064.09
1622.47
1086.32
646.964
427.144
433.79
470.185
469.175
420.267
421.065
444.966
519.149
533.607
542.928
548.188
550.158
563.038
597.838
598.01
598.625
609.342
629.51
684.159
893.13
818.531
676.96
691.745
754.449
777.294
785.007
701.978
526.084
435.025
401.97
396.719
453.472
724.619
1228.54
1756.73
1964.62
2351.36
2301.74
2026.06
1871.26
1792.94
1833.57
1956.16
2089.02
2209.56
2315.15
2284.72
2213.93
2480.39
3152.19
1776.19
1072.81
843.065
543.164
431.428
435.881
469.682
473.677
443.525
430.469
459.882
521.251
534.426
556.274
551.41
556.508
576.237
602.042
602.51
609.382
617.713
635.91
685.842
885.655
877.032
694.676
703.459
763.167
786.618
801.447
701.852
533.358
438.728
402.423
397.302
451.604
717.909
1242.5
1836.47
1919.89
2137.2
2355.6
2216.82
1985.69
1871.85
1835.76
1923.9
2079.45
2204.21
2338.62
2329.43
2261.08
2385.61
3114.73
1855.03
1247.09
888.198
564.25
470.041
420.786
406.352
441.942
473.886
452.443
445.758
469.138
522.937
539.338
561.688
554.22
564.176
589.858
603.538
614.179
639.065
654.798
660.884
712.383
890.093
923.685
731.721
715.311
768.832
804.937
816.224
719.949
541.24
442.511
405.948
398.432
449.663
710.491
1255.51
2016.17
1919.9
2073.8
2285.54
2329.41
2117.42
1982.07
1880.31
1914.92
2054.36
2191.09
2346.92
2373.2
2307.16
2396.81
2859.76
2034.84
1418.17
994.636
573.99
486.876
448.112
406.573
392.122
417.638
472.837
459.406
458.095
474.727
529.196
548.96
561.307
561.145
570.925
595.866
611.246
638.98
698.4
752.308
756.359
757.671
895.89
973.323
757.061
725.578
775.506
818.191
834.915
713.392
555.149
452.199
410.562
400.053
447.671
701.873
1268.69
2309.04
2022.56
2075.83
2209.53
2365.26
2291.19
2103.41
1981.93
1930.15
2033.65
2176.99
2343.34
2412.84
2362.43
2431.71
2745.76
2162.97
1426.84
1127.85
644.729
519.454
470.398
436.574
400.358
385.504
409.098
466.67
464.897
465.912
483.836
532.028
555.84
562.459
564.466
582.668
597.654
632.43
683.001
775.174
883.685
897.59
869.829
918.784
1021.36
797.686
745.075
779.469
835.583
850.17
725.845
571.576
458.049
413.216
401.943
445.549
692.386
1281.03
2636.76
2316.78
2170.65
2230.28
2342.27
2407.42
2266.04
2107.51
1988.94
2033.91
2174.94
2333.12
2457.34
2414.91
2461.23
2783.11
2122.21
1450.07
1302.2
782.393
623.326
544.829
463.661
406.418
390.095
383.852
404.462
463.774
475.018
470.748
499.002
532.626
558.753
563.529
568.861
592.267
605.319
653.77
707.279
801.393
939.428
995.154
961.522
961.302
1076.1
851.258
758.698
784.947
853.214
868.894
717.682
585.355
467.465
418.049
403.873
443.325
681.256
1293.63
3090.83
2638.94
2428.38
2372.71
2375.18
2457.73
2421.88
2268.31
2113.7
2051.92
2176.75
2335.07
2489.59
2479.68
2468.55
2847.57
2190.23
1540.47
1383.11
1013.05
745.374
632.28
556.521
442.868
390.242
387.961
387.238
404.974
464.242
475.136
484.541
504.569
535.385
559.525
566.682
572
597.831
618.901
687.439
743.322
799.541
928.392
1016.69
1021.5
1023.91
1137.41
910.503
783.947
798.984
873.87
881.934
734.3
601.086
474.4
419.878
406.183
440.972
669.505
1305.56
3721.68
3112.75
2762.47
2634.8
2575.78
2510.42
2568.85
2445.22
2290.03
2136.51
2185.82
2337.57
2503.48
2561.22
2511.28
2816.5
2183.95
1590.57
1462.7
1174.97
809.633
718.655
667.07
562.798
431.848
371.28
388.61
391.337
407.224
463.233
482.017
494.631
508.492
539.839
562.872
567.096
575.859
605.413
635.267
694.227
757.894
791.108
856.309
986.723
1046.4
1051.18
1193.57
1002.31
797.037
817.138
889.037
895.931
748.445
616.625
483.081
421.572
408.02
438.462
663.669
1317.87
4584.96
3706.62
3166.39
2950.96
2903.91
2722.72
2679.93
2654.63
2500.2
2299.72
2232.32
2350.14
2512.39
2653.53
2570.24
2807.08
2174.8
1648.21
1549.57
1343.71
921.392
792.129
767.528
703.009
553.676
389.688
368.894
390.055
400.21
423.082
474.805
494.43
498.086
514.151
541.2
564.287
567.715
582.318
614.53
657.287
694.135
764.576
779.926
809.296
929.074
1030.71
1082.24
1252.63
1081.37
826.751
830.504
908.65
902.078
762.949
631.113
488.455
422.034
410.348
435.96
664.668
1329.66
5894.74
4460.97
3823.12
3288.63
3258.25
3079.16
2876.01
2873.23
2734.55
2512.38
2359.34
2407.5
2541.79
2733.22
2687.06
2645.94
2143.36
1730.74
1592.14
1500.53
1013.62
903.191
938.082
920.508
748.209
517.617
372.136
373.262
399.462
415.298
442.747
488.519
496.639
504.997
520.127
541.398
564.521
566.411
593.751
619.989
672.736
701.094
764.489
777.621
797.937
863.477
996.264
1080.61
1295.99
1187.54
847.806
847.092
920.456
910.705
786.553
631.262
493.947
422.641
411.999
433.429
667.19
1341.84
8174.29
5298.63
4480.44
3780.63
3585.77
3516.01
3219.85
3088.08
2998.12
2764.98
2565.46
2514.56
2609.56
2793.08
2823.02
2643.55
2155.15
1767.13
1663.1
1545.18
1175.94
971.563
1116.06
1377.17
1322.81
739.669
433.926
377.934
390.192
416.165
433.472
464.065
494.949
504.316
506.146
524.269
540.89
561.148
566.356
608.198
622.08
681.127
712.127
764.997
780.626
801.258
856.372
971.595
1076.55
1314.52
1287.51
889.451
861.888
922.167
914.315
796.421
629.833
497.465
424.047
413.814
430.669
664.382
1353.62
11768.2
6391.33
5308.35
4513.85
3951.25
3946.28
3666.47
3405.91
3315.61
3075.48
2848.54
2687.59
2722.38
2843.42
2972.99
2763.5
2068.9
1786.3
1666.56
1577.05
1284.33
1064.83
1256.68
1798.59
2198.46
1511.15
656.443
405.353
401.28
411.356
428.837
458.986
483.384
503.319
506.994
512.106
525.196
538.884
559.798
569.106
614.632
621.587
693.915
728.011
768.871
797.434
819.852
872.757
974.117
1078.82
1352.67
1398.41
926.18
878.423
927.319
915.213
792.158
633.345
503.694
423.926
414.399
427.193
665.669
1365.83
15348.3
7925.8
6198.48
5279.7
4522.22
4328.38
4179.48
3841.87
3650.17
3462.73
3194.64
2925.97
2897.08
2933.66
3127.37
2953.33
2074.07
1805.28
1712.54
1624.64
1373.93
1135.15
1349.33
2063.94
2580.84
2316.92
1332.22
478.717
425.969
421.392
422.745
459.049
483.401
498.588
504.772
508.957
513.324
523.998
538.031
558.713
576.454
612.098
622.528
714.363
740.581
783.011
835.869
862.424
921.548
1001.88
1084.55
1375.35
1505.96
1009.53
910.348
912.884
902.562
792.5
635.563
507.771
424.01
413.771
422.757
651.094
1377.69
15713.6
10299.5
7528.35
6172.27
5239.12
4772
4668.66
4351.58
4058.69
3836.54
3593.51
3233.75
3117.82
3106.87
3250.7
3191.04
2101.26
1821.96
1758.7
1676.13
1459.51
1215.79
1394.01
2158.28
2693.81
2612.86
2146.81
729.714
453.915
464.394
426.699
450.57
487.383
499.565
504.957
508.593
510.848
511.642
523.187
537.284
558.531
590.707
604.643
643.998
728.102
761.146
790.534
875.335
927.226
987.639
1049.39
1105.43
1359.03
1628.73
1083.4
943.711
892.189
895.495
808.347
635.122
514.901
424.358
409.667
416.409
643.568
1389.89
11708
13911.8
9288.73
7328.35
6158.5
5346.67
5155.06
4914.32
4565.48
4259.32
3992.45
3608.14
3404.7
3330.21
3349.67
3440.09
2148.29
1838.8
1807.16
1723.65
1519.98
1271.75
1499.3
2265.23
2814.96
2719.25
2566.11
1282.73
488.847
471.341
475.453
446.949
483.228
509.025
504.586
505.996
511.948
500.535
514.982
520.78
538.295
561.221
594.85
602.486
691.37
737.146
773.432
797.841
883.175
948.94
1031.1
1094.69
1130.93
1346.34
1745.3
1228.27
948.536
888.728
869.463
803.137
635.579
518.988
423.295
406.434
408.586
623.821
1401.76
7156.87
18159.5
11671
8885.3
7256.48
6147.39
5686.67
5470.38
5124.96
4754.61
4438.51
3998.66
3734.73
3636.55
3495.9
3691.89
2538.9
1874.61
1861.16
1776.84
1575.69
1288.16
1470.56
2438.53
2963.93
2868.83
2706.28
1900.15
643.331
479.85
504.825
476.109
482.001
513.605
514.01
505.771
510.395
500.018
496.995
516.208
515.392
544.206
569.009
589.727
608.857
727.128
739.196
777.428
810.54
881.017
942.304
1025.53
1120.52
1148.16
1317.49
1835.8
1347.25
949.67
877.901
847.374
809.155
630.996
518.194
421.21
401.86
399.552
613.11
1413.86
4502.97
18372.6
13918.9
10971.6
8677.63
7150.82
6294.4
6031.47
5717.39
5291.4
4946.48
4434.49
4120.32
3970.63
3774.4
3928.23
3383.39
1973.86
1910.02
1849.62
1632.59
1286.87
1410
2283.89
3088.07
3026.46
2879.37
2433.43
795.126
535.939
509.746
511.844
483.015
508.076
525.752
514.323
511.733
508.198
487.832
499.571
509.433
513.422
551.703
570.911
588.087
636.174
735.314
721.322
786.744
829.678
891.554
950.899
1025.6
1124.41
1161.07
1292.83
1831.84
1515.42
990.408
862.038
843.707
806.834
640.995
526.338
420.192
396.408
390.002
589.664
1425.52
3132.78
11025.3
14482.8
12904.3
10679.9
8424.71
7141.86
6598.09
6307.02
5870.84
5462.51
4947.12
4554
4343.34
4119.03
4104.49
4058.27
2087.55
1958.6
1921.06
1698.21
1283.16
1348.55
2173.05
3211.08
3153.18
3018.24
2750.62
955.299
595.319
555.154
519.357
514.691
508.979
527.085
524.986
512.192
513.21
487.137
482.648
504.448
505.879
512.842
555.543
568.182
587.545
685.144
710.854
719.022
801.603
869.341
937.92
986.125
1045.21
1134.05
1171.13
1277.73
1822.47
1662.5
1035.46
851.905
841.062
798.871
639.622
521.352
418.217
389.623
380.669
574.692
1437.26
2581.91
4136.18
13808
13273
12763.4
10237.6
8184.66
7212.38
6857.55
6439.91
6003.78
5472.7
5018.54
4755.76
4498.36
4326.39
4543.78
2209.74
2021.22
2005.07
1749.12
1274.81
1293
2008.67
3370.54
3302.09
3162.64
2921.18
1425.46
658.622
570.643
572.886
515.81
517.749
528.794
528.018
526.75
513.847
495.519
480.51
480.219
503.055
499.512
518.751
556.763
567.791
604.28
703.632
698.237
744.117
822.4
952.819
1028.6
1074.18
1096.08
1157.38
1196.95
1279.25
1742.17
1836.15
1095.68
862.164
831.121
795.585
639.758
522.666
417.731
383.618
373.031
553.398
1448.37
2430.33
2482.01
10841.9
12969.2
13454.6
12585.7
9636.37
7991
7390.52
6934.37
6517.56
6013.59
5535.11
5189.93
4936.05
4642.87
4772.14
2497.22
2079.47
2090.5
1814.28
1290.97
1245.12
1816.8
3427.19
3462.49
3301.69
3102.1
1912.02
838.129
561.704
586.719
558.441
523.842
544.896
531.297
534.219
511.93
500.175
483.109
473.742
479.488
494.207
496.745
529.919
551.498
567.77
643.847
690.84
693.417
781.739
883.231
1038.68
1108
1156.64
1184.52
1229.69
1221.92
1283.95
1658.46
1964.98
1164.1
865.299
833.084
798.232
633.812
526.939
417.524
378.116
370.618
545.095
1459.39
2393.4
2253.21
7438.21
11676
13114
14177.9
11623.9
8922.08
7938.63
7317.66
6928.09
6498.69
6059.87
5683.24
5353.31
5026.32
4983.23
3096.76
2128.95
2129.96
1881.09
1325.21
1208.92
1673.71
3539.88
3654.25
3456.49
3254.38
2502.7
952.124
594.75
564.581
613.218
541.134
537.23
550.877
526.369
535.035
499.596
490.747
476.278
462.68
484.278
489.688
495.985
536.68
550.798
578.315
662.333
677.749
697.038
850.117
958.221
1028.52
1099.48
1207.12
1280.41
1281.94
1262.31
1287.29
1559.91
2072.87
1259.85
870.724
835.361
791.035
648.045
523.495
422.601
376.476
371.867
538.444
1469.63
2384.22
2219.05
5951
9691.26
12515.6
14311.6
13894.2
10168.1
8545.25
7613.79
7080.9
6802.03
6538.34
6197.08
5825.89
5463.66
5388.44
3085.14
2195.32
2192.25
1936.28
1383.43
1186.38
1537.46
3577.56
3865.89
3644.45
3365.19
3148.93
1059.33
691.446
568.328
580.75
592.93
546.866
553.784
535.254
525.437
519.533
484.442
485.502
462.816
457.423
484.835
483.25
497.004
540.187
550.329
603.344
666.573
672.609
725.169
924.802
983.499
1004.56
1048.04
1182.92
1294.5
1336.59
1314.76
1289.63
1518.73
2154.93
1368.61
883.127
831.705
813.136
644.097
523.77
432.412
375.936
371.496
530.623
1479.74
2380.96
2202.34
5359.41
8281.68
10796
13826.9
15336.8
11858
9342.74
7890.06
7030.04
6939.78
6772.09
6627.8
6315.22
5935.82
5774.42
3559.54
2393.39
2213.59
1978.06
1473.57
1175.87
1434.98
3490.32
4120.08
3847.44
3493.34
3383.95
1404.62
715.942
582.15
577.149
585.912
594.756
549.936
557.224
527.642
522.445
497.213
479.16
472.237
451.15
456.166
478.638
480.094
507.419
537.522
553.304
626.76
652.374
671.496
814.079
956.067
960.796
938.48
954.171
1087.26
1269.2
1359.47
1344.38
1306.57
1495.25
2186.3
1488.67
888.21
829.888
823.083
647.978
523.934
443.664
376.9
369.566
531.355
1489.09
2368.32
2192.53
4981.9
7240.43
9323.94
12477.8
15354.4
13841.7
10309.3
8234.92
7048.85
7018.37
6806.15
6770.21
6770.77
6391.84
6146.75
5463.15
2690.33
2205.01
1994.64
1526.35
1182.67
1351.42
3317.19
4378.51
4078.89
3617.08
3548
1738.5
852.62
592.687
581.889
588.878
580.958
596.25
557.51
543.784
523.962
509.742
486.968
470.661
455.814
444.453
459.298
475.645
477.854
515.027
537.384
564.031
635.181
648.298
695.147
893.894
943.35
903.403
887.206
905.433
980.861
1183.93
1342.67
1378.99
1343.11
1497.54
2237.43
1605.07
885.316
823.406
856.903
692.536
521.176
454.36
376.37
369.82
532.831
1498.47
2355.03
2211.27
4262.25
6329.75
8222.3
10586
14740.9
15402.2
11466.2
8588.89
7266.89
7069.44
6780.36
6861.58
6992.6
6785.78
6522.81
6196.37
2881.78
2166.87
2007.64
1587.5
1192.65
1289.91
3114.27
4643.41
4320.36
3754.61
3659.48
2067.48
1048.67
633.621
590.434
594.03
584.951
589.409
595.214
546.496
539.078
516.013
496.978
478.182
455.778
445.795
437.53
464.606
468.867
479.124
520.129
536.278
585.312
629.194
647.896
761.125
921.439
898.075
858.981
866.984
901.505
950.505
1057.58
1289.52
1391.11
1368.49
1502.71
2254.91
1721.38
881.183
835.973
890.903
713.07
535.905
467.151
377.541
370.94
533.04
1507.25
2330.51
2169.06
3698.23
5446.84
7299.86
9388.63
13814.8
15656.5
12752.2
8975.3
7265.33
6967.81
6819.58
6851.78
6996.32
6964.19
6774.53
7058.18
3071.7
2100.12
2018.52
1631.39
1208.78
1252.78
2852.38
4894.58
4567.74
3902.63
3782.39
2510.79
1132.39
753.156
620.828
608.937
606.184
589.257
592.444
570.728
540.581
534.364
500.945
488.55
459.833
445.267
432.072
436.473
465.207
465.474
481.956
523.412
540.432
599.264
626.837
662.69
845.196
904.71
850.738
851.032
872.499
927.547
962.09
1016.55
1194.62
1384.16
1417.05
1504.15
2280.13
1826.02
899.032
850.932
931.802
737.058
556.635
479.914
379.259
369.275
529.803
1516.29
2313.05
2148.59
3113.79
4608.99
6112.16
8448.43
11862.1
15895.1
13833.7
9386.66
7251.24
7091.96
6908.94
6919.7
7037.6
7009.53
6872.28
7509.28
3363.62
2071.22
2011.16
1668.98
1238.15
1219.73
2997.32
5182.06
4774.18
4075.88
3917.72
2649.13
1375.75
781.283
620.075
615.726
614.538
609.696
598.622
596.972
564.039
536.414
522.503
489.26
473.462
445.575
433.122
426.83
439.189
458.836
464.069
492.116
523.837
547.52
603.347
625.967
704.249
872.861
862.476
833.452
867.385
933.422
977.425
990.822
1012.82
1113.33
1353.93
1457.49
1503
2290.8
1943.15
907.519
878.286
956.228
781.32
569.73
489.425
382.576
370.684
508.33
1524.93
2310.18
2147.11
2657.8
3982.74
4950.36
7436.32
10541.1
15359.4
14095.7
9709.26
7287.79
6989.78
6798.46
6844.48
7028.47
7070.85
6852.42
7640.56
3984.91
2124.34
2018.62
1684.64
1253.13
1205.92
2960.59
5365.26
4979.49
4265.32
4077.48
2898.17
1697.63
936.017
629.136
614.749
615.877
618.295
608.877
604.531
578.943
560.21
529.827
508.582
481.007
455.29
433.955
425.172
425.479
444.015
455.953
464.25
496.946
522.54
563.132
601.765
630.99
794.037
870.364
836.987
830.69
934.135
1017.65
1064.31
1026.41
1022.7
1060.56
1289.34
1466.52
1521.9
2267.96
2033.11
930.096
900.622
976.068
808.894
583.9
505.13
387.141
370.383
500.427
1533.97
2302.18
2077.62
2356.46
3508.75
3814.96
6278.46
9535.98
14314.5
14035.6
9943.2
7220.79
6907.78
6773.72
6776.7
7053.57
7071.09
6840.27
7394.97
6597.9
2155.97
2022.68
1695.87
1290.56
1196.35
2562.73
5566.06
5208.09
4472.14
4235.01
3251.65
2026.91
1195.5
698.415
638.421
622.207
621.192
616.675
607.776
604.005
576.117
555.624
518.643
497.102
465.757
436.944
424.967
420.117
423.01
443.911
453.653
465.725
503.553
522.104
571.082
601.818
661.577
828.888
841.181
829.534
861.286
1018.94
1090.24
1108.82
1060.7
1023.65
1035.53
1195.13
1462.93
1549.04
2276.36
2153.61
951.826
919.424
990.27
851.933
605.771
518.722
391.289
369.402
483.56
1542.64
2296.67
2081.8
2240.78
3272.18
2999.77
4968.24
8537.36
13213.2
14060.6
10251.8
7287.57
6830.34
6858.96
6711.96
6961.83
7015.29
6888.38
7210.8
8293.88
2265.71
2025.33
1695.34
1323.69
1190.03
2762.68
5805.34
5345.89
4727.64
4392.25
3539.29
2204.87
1378.54
819.622
680.545
642.932
626.887
626.351
612.897
602.863
583.281
572.493
540.204
508.106
482.871
448.706
426.119
420.299
416.396
422.487
439.917
453.556
467.664
506.092
524.406
575.923
603.243
728.151
837.712
831.613
835.774
957.011
1064.19
1119.54
1113.01
1083.84
1034.63
1031.25
1133.22
1447.93
1560.41
2236.05
2230.61
1008.31
947.919
1004.47
872.548
624.277
534.355
397.338
370.581
476.317
1551.58
2279.04
2108.58
2200.37
3253.57
2516.86
3859.27
7793.16
12185.2
14290.5
10357.1
7144.89
6769.11
6665.04
6653.71
6892.95
7003.52
6837.83
7051.82
8370.07
2693.38
2009.38
1697.03
1353.61
1221.94
2650.49
5973.08
5529.46
5006.47
4605.02
3475.34
2370.55
1534.77
1013.71
740.811
654.339
633.315
633.284
627.826
606.996
597.653
579.948
560.379
526.093
497.385
468.146
433.251
420.742
416.706
412.948
424.432
439.688
453.218
473.858
506.531
529.631
576.552
628.223
780.895
826.804
830.296
871.735
1047.37
1096.95
1113.88
1099.74
1086.37
1054.73
1037.54
1118.39
1411.29
1558.41
2230.56
2364.96
1049.22
970.737
1027.14
903.601
639.767
551.765
404.021
372.549
470.274
1560.05
2267.25
2089.19
2212.64
3168.62
2415.11
2982.23
7114.26
11525.4
13931.3
10273.5
7160.14
6411.61
6206.5
6222.48
6845.13
7033.09
6826.36
6947.4
8159.65
3273.98
1979.58
1697.15
1389.11
1258.1
2563.32
6055.11
5781.71
5335.28
4826.48
3883.54
2563.81
1676
1226.54
874.277
696.416
643.094
638.906
637.72
614.423
603.694
585.845
572.196
542.193
518.885
483.781
444.112
425.778
415.632
411.194
411.127
421.651
439.633
451.242
477.203
506.971
535.101
582.225
680.593
798.155
823.971
848.851
934.224
1087.57
1105.4
1102.3
1089.19
1095.04
1102.04
1068.45
1127.36
1352.14
1550.36
2176.85
2450.5
1137.53
993.731
1045.63
923.342
662.258
567.598
412.857
374.68
470.458
1568.58
2261.44
2136.97
2220.6
3177.62
2410.86
2574.33
6921.68
11119.4
14026
10105.4
6926.88
5767.05
5365.74
5474.48
6428.21
6891.62
6867.73
6841.27
9894.87
3622.34
1948.1
1691.86
1427.35
1386.38
2622.48
6187.56
6070.11
5707.47
5076.22
4232.72
2748.77
1773.41
1384.15
1018.42
839.697
683.346
653.146
645.659
621.952
611.109
591.609
579.899
552.547
532.923
506.997
462.52
430.094
417.512
409.959
405.64
410.916
420.292
437.854
452.072
480.34
509.859
538.246
604.969
740.834
801.368
833.206
888.949
1015.79
1102.86
1101.08
1101.57
1100.33
1125.87
1178.79
1153.6
1156.47
1325.45
1523.82
2128.68
2577.12
1180.61
1008.08
1061.34
957.375
677.026
588.748
424.064
376.549
470.876
1576.67
2256.55
2164.5
2295.12
3128.45
2444.27
2455.91
7261.02
11508.3
13537.7
10060.5
6645.8
4750.75
4364.41
4587.57
5502.27
6668.36
6784.48
6698.24
9484.98
3944.72
1970.7
1675.46
1474.95
1503.13
2637.36
6347.11
6373.2
6106.62
5387.65
4342.53
2881.05
1823.02
1536.15
1178.41
976.223
779.461
673.837