/*--------------------------------*- C++ -*----------------------------------*\
| =========                 |                                                 |
| \\      /  F ield         | OpenFOAM: The Open Source CFD Toolbox           |
|  \\    /   O peration     | Version:  2212                                  |
|   \\  /    A nd           | Website:  www.openfoam.com                      |
|    \\/     M anipulation  |                                                 |
\*---------------------------------------------------------------------------*/
FoamFile
{
    version     2.0;
    format      ascii;
    arch        "LSB;label=32;scalar=64";
    class       volVectorField;
    location    "0";
    object      U;
}
// * * * * * * * * * * * * * * * * * * * * * * * * * * * * * * * * * * * * * //

dimensions      [0 1 -1 0 0 0 0];

internalField   nonuniform List<vector> 
82460
(
(-18.975 -1.45492 0)
(-3.32174 1.14043 0)
(-31.2626 3.24742 0)
(25.3232 -24.1942 0)
(-5.96118 10.7245 0)
(-28.6961 4.82947 0)
(48.7155 -44.2407 0)
(31.5988 -28.798 0)
(-10.8207 4.41852 0)
(-22.3515 5.9241 0)
(114.395 -67.798 0)
(54.6131 -47.327 0)
(31.8851 -32.6315 0)
(-13.14 -11.137 0)
(-20.464 7.69017 0)
(154.551 -94.784 0)
(121.199 -70.9968 0)
(56.2423 -49.1808 0)
(35.1329 -37.3819 0)
(-7.58622 -21.4746 0)
(-20.9514 7.77643 0)
(173.08 -117.802 0)
(161.293 -98.0472 0)
(123.602 -72.162 0)
(60.1307 -51.1335 0)
(35.8201 -41.7249 0)
(-0.414292 -26.2091 0)
(-20.7743 7.37342 0)
(174.487 -138.913 0)
(179.143 -121.327 0)
(163.981 -98.9632 0)
(128.689 -74.2362 0)
(61.7695 -53.0827 0)
(38.1489 -46.218 0)
(4.79654 -30.1083 0)
(-19.4738 4.69558 0)
(166.662 -155.559 0)
(179.509 -143.016 0)
(181.976 -121.927 0)
(169.483 -101.713 0)
(131.47 -75.8573 0)
(65.1799 -55.149 0)
(39.0053 -50.5985 0)
(10.9197 -33.2776 0)
(-17.6133 1.67087 0)
(156.885 -167.358 0)
(170.17 -159.811 0)
(182.514 -143.548 0)
(187.25 -124.762 0)
(172.428 -103.501 0)
(136.543 -78.343 0)
(66.6137 -57.4124 0)
(41.1449 -55.0416 0)
(15.554 -36.4972 0)
(-15.8008 -2.88345 0)
(146.916 -174.548 0)
(158.967 -170.397 0)
(172.861 -160.542 0)
(187.023 -146.609 0)
(190.102 -125.95 0)
(177.735 -106.852 0)
(139.458 -80.5105 0)
(69.5761 -59.9192 0)
(42.2046 -59.2152 0)
(19.9574 -39.3102 0)
(-12.6367 -9.41265 0)
(134.284 -175.096 0)
(148.139 -175.767 0)
(160.644 -170.712 0)
(175.977 -163.362 0)
(189.851 -147.079 0)
(195.064 -128.876 0)
(180.756 -109.298 0)
(144.548 -83.5677 0)
(70.861 -62.7119 0)
(44.2392 -63.2632 0)
(22.8153 -42.206 0)
(-9.22093 -12.2754 0)
(123.424 -170.762 0)
(132.708 -174.586 0)
(147.953 -175.718 0)
(163.278 -170.987 0)
(178.133 -163.535 0)
(194.077 -149.021 0)
(197.712 -130.346 0)
(185.848 -112.988 0)
(147.584 -86.3808 0)
(73.5291 -65.879 0)
(45.3212 -66.8677 0)
(26.7762 -44.4772 0)
(-6.94674 -11.2989 0)
(115.586 -164.898 0)
(120.514 -168.823 0)
(131.847 -173.435 0)
(147.923 -175.144 0)
(163.955 -171.035 0)
(181.309 -163.647 0)
(196.519 -148.48 0)
(201.936 -132.608 0)
(188.733 -115.628 0)
(152.614 -90.1675 0)
(74.7912 -69.3287 0)
(47.4383 -70.1424 0)
(30.2243 -46.5008 0)
(-2.3278 -6.15167 0)
(110.73 -157.056 0)
(111.702 -161.452 0)
(119.301 -168.313 0)
(130.562 -172.55 0)
(147.596 -174.196 0)
(165.479 -170.358 0)
(181.59 -164.027 0)
(200.104 -148.146 0)
(203.993 -133.268 0)
(193.372 -118.96 0)
(155.648 -93.7278 0)
(77.3838 -73.2182 0)
(48.8059 -72.9674 0)
(35.2249 -48.3711 0)
(1.68591 -2.62559 0)
(109.824 -148.069 0)
(106.019 -152.405 0)
(110.163 -160.499 0)
(117.02 -168.171 0)
(129.625 -171.784 0)
(148.548 -172.917 0)
(165.53 -169.696 0)
(185.051 -162.553 0)
(201.982 -145.7 0)
(207.027 -133.58 0)
(195.738 -120.658 0)
(160.344 -98.1918 0)
(78.8219 -77.3704 0)
(51.2163 -75.4979 0)
(39.4209 -50.4449 0)
(2.19882 -4.84519 0)
(110.507 -137.22 0)
(103.967 -141.771 0)
(103.796 -151.469 0)
(106.806 -159.722 0)
(115.683 -167.574 0)
(129.153 -170.264 0)
(147.738 -171.558 0)
(167.29 -168.433 0)
(186.665 -161.029 0)
(205.167 -143.679 0)
(208.428 -132.901 0)
(199.333 -122.471 0)
(163.062 -102.136 0)
(81.4981 -81.9127 0)
(52.8738 -77.602 0)
(44.2206 -52.3036 0)
(5.01471 -6.39834 0)
(113.005 -126.21 0)
(103.774 -129.032 0)
(101.291 -140.061 0)
(99.5153 -150.346 0)
(104.99 -159.526 0)
(113.708 -165.767 0)
(127.903 -167.753 0)
(146.993 -168.638 0)
(166.495 -167.481 0)
(189.65 -157.573 0)
(206.367 -139.994 0)
(210.494 -131.34 0)
(201.156 -122.955 0)
(167.104 -106.698 0)
(83.2412 -86.6911 0)
(55.6002 -79.3817 0)
(48.5609 -53.987 0)
(7.89047 -7.69659 0)
(115.727 -114.662 0)
(105.69 -116.834 0)
(100.731 -126.561 0)
(95.5586 -137.324 0)
(96.9101 -149.95 0)
(101.648 -158.426 0)
(112.228 -163.077 0)
(127.307 -164.745 0)
(146.242 -164.896 0)
(167.075 -163.626 0)
(191.252 -152.725 0)
(208.838 -136.812 0)
(210.939 -128.809 0)
(203.319 -123.419 0)
(169.227 -110.475 0)
(86.1132 -91.74 0)
(57.7363 -80.6617 0)
(53.2058 -55.3397 0)
(11.4591 -8.95545 0)
(116.913 -105.256 0)
(108.23 -103.844 0)
(102.458 -113.723 0)
(94.3181 -122.82 0)
(92.123 -137.029 0)
(92.3658 -148.004 0)
(99.6875 -156.633 0)
(110.739 -160.018 0)
(125.995 -160.645 0)
(145.339 -159.815 0)
(167.627 -156.95 0)
(193.151 -147.094 0)
(209.214 -132.638 0)
(212.138 -125.992 0)
(204.337 -123.016 0)
(172.446 -114.49 0)
(88.1193 -96.9869 0)
(60.9595 -81.7634 0)
(57.4072 -56.461 0)
(15.2268 -10.4334 0)
(117.252 -95.4916 0)
(109.272 -93.868 0)
(105.538 -99.5484 0)
(95.4964 -108.737 0)
(90.4637 -122.219 0)
(86.0735 -135.382 0)
(89.6255 -146.265 0)
(96.7631 -153.987 0)
(109.149 -155.043 0)
(124.894 -154.665 0)
(144.14 -152.296 0)
(166.508 -148.702 0)
(193.398 -139.761 0)
(210.77 -128.454 0)
(211.907 -123.52 0)
(204.313 -122.596 0)
(173.787 -117.453 0)
(91.1423 -102.305 0)
(63.7 -82.4845 0)
(61.7239 -57.343 0)
(19.3802 -11.6865 0)
(115.937 -87.8054 0)
(109.387 -83.1973 0)
(106.909 -88.8589 0)
(98.4695 -93.5142 0)
(91.0243 -107.947 0)
(83.7547 -120.008 0)
(82.8493 -135.45 0)
(85.8242 -143.958 0)
(94.8602 -149.593 0)
(107.848 -149.043 0)
(123.382 -146.849 0)
(142.822 -142.989 0)
(166.307 -138.731 0)
(194.626 -131.375 0)
(210.201 -123.8 0)
(212.146 -121.793 0)
(204.485 -122.615 0)
(176.069 -120.591 0)
(93.336 -107.524 0)
(67.4423 -83.1981 0)
(65.6996 -58.1155 0)
(23.1812 -12.7572 0)
(113.48 -79.4127 0)
(107.989 -75.3481 0)
(107.688 -77.2204 0)
(99.8157 -81.504 0)
(94.1086 -91.956 0)
(83.6376 -105.396 0)
(79.8841 -120.356 0)
(77.3021 -133.577 0)
(83.0991 -140.489 0)
(92.6255 -145.077 0)
(106.436 -141.34 0)
(122.206 -135.82 0)
(141.105 -130.832 0)
(164.713 -127.336 0)
(193.026 -122.988 0)
(210.599 -120.25 0)
(211.183 -120.558 0)
(205.722 -123.416 0)
(176.689 -123.151 0)
(96.5038 -112.427 0)
(70.7547 -83.6868 0)
(69.8834 -58.9087 0)
(27.4844 -13.8675 0)
(109.543 -72.6054 0)
(105.357 -66.7061 0)
(106.628 -69.0499 0)
(100.971 -69.4247 0)
(95.8378 -78.9117 0)
(86.5757 -88.451 0)
(79.0568 -106.338 0)
(73.2765 -117.947 0)
(74.1555 -130.689 0)
(80.1914 -136.548 0)
(91.0255 -137.41 0)
(105.375 -129.881 0)
(120.242 -122.237 0)
(139.122 -118.246 0)
(163.355 -115.962 0)
(193.2 -115.608 0)
(209.051 -119.373 0)
(211.58 -121.459 0)
(206.137 -124.793 0)
(178.493 -126.489 0)
(98.9407 -116.97 0)
(74.9146 -84.2251 0)
(73.7354 -59.6222 0)
(31.4252 -14.8221 0)
(106.327 -65.159 0)
(101.865 -61.0123 0)
(104.351 -60.189 0)
(100.362 -61.1145 0)
(97.2833 -66.781 0)
(88.9343 -74.5832 0)
(81.6303 -89.0876 0)
(71.57 -104.128 0)
(69.4995 -117.429 0)
(69.6268 -127.801 0)
(77.4388 -130.386 0)
(89.4532 -128.267 0)
(104.392 -118.267 0)
(119.155 -108.82 0)
(136.81 -105.992 0)
(161.22 -106.762 0)
(190.288 -111.272 0)
(208.78 -118.628 0)
(210.877 -122.323 0)
(205.635 -126.806 0)
(178.729 -129.642 0)
(102.397 -121.148 0)
(78.6359 -84.6655 0)
(77.7986 -60.4141 0)
(35.8128 -15.8826 0)
(101.921 -63.077 0)
(100.791 -54.9893 0)
(101.645 -54.9258 0)
(98.5733 -52.7352 0)
(97.4681 -57.9651 0)
(91.446 -62.6871 0)
(84.2584 -74.6176 0)
(73.6729 -87.142 0)
(67.4115 -104.993 0)
(64.1711 -115.994 0)
(67.1403 -122.662 0)
(75.8559 -122.936 0)
(88.8293 -115.493 0)
(103.561 -100.426 0)
(116.033 -90.837 0)
(133.435 -93.3025 0)
(158.629 -99.0392 0)
(189.786 -107.806 0)
(206.759 -120.217 0)
(210.956 -124.366 0)
(205.255 -129.712 0)
(180.274 -133.387 0)
(105.202 -124.965 0)
(83.1024 -85.2327 0)
(81.5505 -61.1518 0)
(39.9419 -16.7945 0)
(99.3546 -61.4595 0)
(98.2163 -56.4478 0)
(102.727 -49.5457 0)
(97.2815 -48.2539 0)
(95.9431 -49.93 0)
(92.4883 -53.3767 0)
(87.1414 -62.8005 0)
(77.4438 -72.459 0)
(68.9796 -89.2498 0)
(60.6597 -102.884 0)
(60.5519 -112.774 0)
(63.9109 -117.003 0)
(73.7169 -113.217 0)
(87.8716 -99.2427 0)
(102.083 -83.0518 0)
(113.747 -77.8899 0)
(130.359 -85.6816 0)
(156.174 -94.6332 0)
(185.74 -107.361 0)
(205.971 -121.275 0)
(209.676 -125.778 0)
(204.599 -132.69 0)
(180.302 -136.519 0)
(108.984 -128.462 0)
(87.1063 -85.8608 0)
(85.5482 -61.9944 0)
(44.3847 -17.8369 0)
(95.4253 -61.7376 0)
(98.0596 -56.7826 0)
(101.546 -51.1799 0)
(99.1134 -44.1727 0)
(96.317 -45.0166 0)
(91.5694 -45.8057 0)
(88.6346 -52.823 0)
(81.4165 -60.9954 0)
(72.935 -74.3728 0)
(61.1641 -87.913 0)
(56.7957 -100.315 0)
(56.4821 -108.774 0)
(62.1672 -108.838 0)
(73.7275 -100.786 0)
(88.779 -82.4013 0)
(101.459 -65.5038 0)
(109.469 -65.6461 0)
(126.028 -78.9276 0)
(152.815 -91.9254 0)
(184.096 -107.254 0)
(203.758 -123.451 0)
(209.667 -128.388 0)
(204.74 -136.216 0)
(181.821 -140.018 0)
(112.117 -131.584 0)
(91.7893 -86.7186 0)
(89.2381 -62.7704 0)
(48.7113 -18.7851 0)
(95.4436 -62.3408 0)
(95.9741 -60.0007 0)
(102.777 -53.1495 0)
(100.595 -45.2159 0)
(99.4679 -40.342 0)
(92.8591 -40.3952 0)
(88.0849 -45.2731 0)
(83.9239 -50.3193 0)
(76.9442 -62.9949 0)
(66.0338 -72.935 0)
(57.2056 -87.9349 0)
(51.3968 -96.8271 0)
(53.089 -101.898 0)
(60.1234 -96.9151 0)
(72.7921 -84.8696 0)
(88.2599 -61.7278 0)
(98.4124 -47.8787 0)
(106.032 -59.2015 0)
(122.541 -76.8689 0)
(150.178 -91.8951 0)
(180.354 -109.582 0)
(203.025 -125.636 0)
(208.657 -130.796 0)
(204.004 -139.866 0)
(181.932 -142.82 0)
(116.171 -134.387 0)
(95.9653 -87.7461 0)
(93.227 -63.6764 0)
(53.2252 -19.8691 0)
(116.858 -67.4256 0)
(98.8851 -63.8626 0)
(99.8636 -59.7026 0)
(105.956 -47.4131 0)
(103.567 -41.4952 0)
(96.5483 -34.3576 0)
(90.1398 -38.8021 0)
(83.8617 -42.6362 0)
(79.6055 -51.3962 0)
(70.8093 -61.6154 0)
(61.8873 -73.9149 0)
(50.3753 -86.1643 0)
(47.9626 -91.0741 0)
(50.3631 -93.6394 0)
(59.5563 -85.4397 0)
(74.4325 -68.4443 0)
(89.5643 -45.7025 0)
(96.0828 -40.6394 0)
(100.22 -59.1446 0)
(118.75 -77.4027 0)
(146.692 -93.2918 0)
(178.452 -111.814 0)
(200.807 -128.676 0)
(208.416 -134.402 0)
(203.622 -143.571 0)
(183.486 -145.783 0)
(119.521 -136.806 0)
(100.776 -89.0495 0)
(96.9094 -64.4913 0)
(57.74 -20.9438 0)
(145.879 -75.5546 0)
(132.212 -75.3988 0)
(105.906 -67.5198 0)
(105.3 -57.0872 0)
(112.748 -43.0856 0)
(103.24 -35.0529 0)
(95.2275 -31.15 0)
(85.7564 -34.7669 0)
(79.3698 -43.0871 0)
(74.1753 -49.0953 0)
(66.2142 -62.552 0)
(54.8693 -72.1719 0)
(47.2432 -82.7502 0)
(44.4909 -85.1523 0)
(48.5668 -83.3329 0)
(59.3213 -68.5081 0)
(74.5937 -48.1601 0)
(88.0613 -31.6506 0)
(93.2499 -38.0601 0)
(96.1627 -60.6445 0)
(115.582 -78.758 0)
(144.109 -95.5406 0)
(174.656 -115.779 0)
(200.152 -132.048 0)
(207.379 -137.638 0)
(203.342 -147.133 0)
(183.72 -147.912 0)
(123.714 -138.794 0)
(105.021 -90.5021 0)
(100.931 -65.445 0)
(62.3574 -22.1427 0)
(154.312 -76.4375 0)
(152.579 -82.7741 0)
(138.139 -82.6985 0)
(116.758 -69.4211 0)
(114.885 -55.7416 0)
(117.935 -35.2795 0)
(104.905 -29.8634 0)
(89.8188 -25.7383 0)
(80.6191 -33.5129 0)
(74.2672 -39.9799 0)
(69.1368 -49.1673 0)
(59.1373 -60.3225 0)
(51.1538 -70.4564 0)
(42.4227 -79.4743 0)
(42.2388 -78.0523 0)
(47.5364 -68.9572 0)
(59.563 -49.7923 0)
(75.7894 -31.7158 0)
(87.5517 -24.411 0)
(87.417 -39.8742 0)
(91.945 -64.3035 0)
(112.271 -81.0226 0)
(140.52 -98.5243 0)
(172.769 -119.231 0)
(198.158 -135.466 0)
(207.081 -141.802 0)
(203.04 -150.604 0)
(185.395 -150.202 0)
(127.169 -140.446 0)
(109.829 -92.1522 0)
(104.636 -66.2516 0)
(67.0558 -23.3806 0)
(155.059 -75.2402 0)
(154.353 -81.6741 0)
(149.76 -90.2454 0)
(151.262 -89.3882 0)
(136.018 -71.0409 0)
(126.124 -52.3919 0)
(124.874 -27.9571 0)
(102.88 -20.346 0)
(85.2328 -23.0647 0)
(74.9203 -29.3032 0)
(68.7036 -39.6369 0)
(62.7376 -46.1373 0)
(54.7892 -58.6733 0)
(44.5452 -67.4349 0)
(39.5369 -72.137 0)
(40.3848 -66.9016 0)
(47.6965 -51.8587 0)
(60.543 -33.2594 0)
(75.0999 -21.3312 0)
(86.8287 -23.1815 0)
(82.3726 -43.2001 0)
(88.0754 -66.5625 0)
(109.235 -83.0703 0)
(137.694 -101.917 0)
(169.194 -123.616 0)
(197.474 -139.301 0)
(206.217 -145.333 0)
(202.899 -153.692 0)
(185.813 -151.53 0)
(131.437 -141.588 0)
(114.048 -93.8367 0)
(108.701 -67.133 0)
(71.8011 -24.6793 0)
(150.904 -71.3168 0)
(151.982 -78.6208 0)
(149.842 -89.5669 0)
(156.414 -97.5148 0)
(163.391 -98.4813 0)
(157.937 -73.542 0)
(143.256 -45.495 0)
(129.651 -17.9854 0)
(100.712 -14.0689 0)
(77.6198 -18.4925 0)
(68.5319 -28.6899 0)
(63.3891 -36.2775 0)
(57.9334 -45.4072 0)
(47.3127 -55.0736 0)
(40.5342 -59.8693 0)
(35.2893 -61.5139 0)
(38.7347 -50.0886 0)
(47.234 -30.4657 0)
(59.6112 -17.2276 0)
(76.5408 -16.3656 0)
(79.9542 -24.8274 0)
(79.2868 -47.024 0)
(84.1769 -69.7467 0)
(105.948 -86.4528 0)
(134.072 -105.866 0)
(167.322 -127.341 0)
(195.628 -142.644 0)
(205.757 -149.317 0)
(202.843 -156.518 0)
(187.418 -152.908 0)
(134.777 -142.485 0)
(118.797 -95.494 0)
(112.41 -67.7667 0)
(76.6509 -25.9666 0)
(136.859 -63.8942 0)
(138.43 -72.1835 0)
(145.091 -86.3845 0)
(150.925 -97.1448 0)
(159.458 -103.578 0)
(173.842 -100.147 0)
(180.252 -70.6718 0)
(160.099 -34.8093 0)
(133.905 -9.29867 0)
(95.1907 -5.25734 0)
(69.7938 -17.5192 0)
(62.7836 -25.0726 0)
(57.7765 -36.0791 0)
(51.328 -42.2777 0)
(43.8157 -49.6104 0)
(35.5336 -52.8042 0)
(33.1389 -46.5883 0)
(37.8434 -29.7641 0)
(46.93 -9.90627 0)
(60.4175 -9.22971 0)
(71.3887 -16.0163 0)
(77.5261 -26.7975 0)
(73.1841 -50.8026 0)
(80.2624 -73.5042 0)
(102.819 -89.9084 0)
(131.143 -109.729 0)
(163.823 -131.092 0)
(194.803 -146.312 0)
(205.083 -152.622 0)
(202.862 -159.03 0)
(188.289 -153.422 0)
(138.912 -143 0)
(122.922 -97.1049 0)
(116.492 -68.4384 0)
(81.509 -27.1994 0)
(122.187 -55.3288 0)
(117.656 -61.5947 0)
(130.205 -77.1605 0)
(136.877 -91.6343 0)
(145.126 -104.878 0)
(164.214 -103.65 0)
(185.366 -86.6796 0)
(194.599 -51.8102 0)
(170.195 -15.0066 0)
(130.871 3.36981 0)
(86.4614 -2.17033 0)
(61.6108 -14.4906 0)
(56.3738 -25.5736 0)
(52.7369 -32.678 0)
(47.5977 -39.9969 0)
(38.2861 -44.5922 0)
(33.0248 -40.7665 0)
(31.491 -27.9271 0)
(37.4648 -10.3568 0)
(49.22 -0.110142 0)
(52.2451 -9.07213 0)
(69.4385 -16.3058 0)
(72.2136 -31.3806 0)
(69.6266 -53.7772 0)
(77.134 -77.0445 0)
(99.7685 -93.6793 0)
(127.524 -113.667 0)
(161.977 -134.458 0)
(193.033 -149.341 0)
(204.581 -156.164 0)
(203.203 -161.32 0)
(189.945 -154.097 0)
(142.058 -143.509 0)
(127.568 -98.7101 0)
(120.197 -68.8743 0)
(86.4828 -28.3172 0)
(109.363 -45.8489 0)
(98.9841 -49.7299 0)
(108.002 -62.732 0)
(108.993 -75.6343 0)
(120.971 -94.4988 0)
(138.804 -103.534 0)
(166.695 -90.8851 0)
(189.376 -50.9745 0)
(190.339 -10.9664 0)
(163.206 12.1351 0)
(122.333 14.317 0)
(76.2478 2.68242 0)
(52.6706 -16.2736 0)
(51.4029 -22.4086 0)
(47.8512 -31.4866 0)
(42.1972 -35.376 0)
(35.8529 -32.8074 0)
(30.4409 -25.518 0)
(30.2094 -9.72658 0)
(41.393 -0.0902723 0)
(41.3161 0.482923 0)
(48.8274 -9.32832 0)
(62.9885 -19.0685 0)
(68.9039 -35.0526 0)
(63.978 -58.631 0)
(73.2704 -79.571 0)
(96.1624 -96.9898 0)
(124.52 -116.882 0)
(158.579 -137.221 0)
(191.994 -152.713 0)
(204.167 -158.979 0)
(203.524 -163.337 0)
(190.947 -154.041 0)
(145.998 -143.693 0)
(131.581 -100.268 0)
(124.305 -69.3584 0)
(91.4208 -29.2757 0)
(96.7367 -35.1282 0)
(81.1654 -36.6476 0)
(87.523 -46.7808 0)
(79.3961 -54.0789 0)
(85.08 -69.3409 0)
(95.3916 -82.026 0)
(120.452 -77.0742 0)
(150.708 -38.1767 0)
(169.17 10.8418 0)
(169.639 31.4212 0)
(147.794 31.7239 0)
(108.489 22.9149 0)
(61.6484 -1.14793 0)
(46.5992 -14.5087 0)
(46.39 -23.8499 0)
(43.9397 -26.6737 0)
(39.2986 -28.0665 0)
(33.0529 -23.0075 0)
(29.8409 -11.1682 0)
(33.1511 -2.69177 0)
(35.5533 1.55511 0)
(37.9762 1.10903 0)
(48.122 -9.66587 0)
(60.5261 -20.9611 0)
(64.8865 -37.8481 0)
(60.4003 -61.1061 0)
(69.4442 -81.718 0)
(92.8379 -100.459 0)
(120.961 -120.322 0)
(156.66 -140.142 0)
(190.239 -155.277 0)
(203.721 -162.069 0)
(204.2 -165.144 0)
(192.81 -154.18 0)
(148.897 -143.984 0)
(136.139 -101.936 0)
(128.03 -69.6858 0)
(96.4771 -30.0402 0)
(72.2635 -15.6346 0)
(54.3086 -17.319 0)
(63.41 -26.4381 0)
(48.1308 -26.9499 0)
(47.7434 -36.3617 0)
(38.3389 -37.9987 0)
(43.2618 -25.9838 0)
(49.1125 27.8915 0)
(67.8303 77.9491 0)
(115.051 78.9344 0)
(136.714 59.2063 0)
(129.504 47.6002 0)
(90.5561 25.3287 0)
(49.6378 -3.68364 0)
(42.2322 -16.8535 0)
(42.951 -19.8705 0)
(40.3233 -22.1658 0)
(37.1034 -21.8363 0)
(33.0037 -13.3821 0)
(32.1442 -2.29545 0)
(29.1056 0.750628 0)
(34.5711 5.10829 0)
(34.9321 2.91918 0)
(45.7306 -10.315 0)
(56.1103 -23.763 0)
(59.0721 -42.3773 0)
(55.679 -63.9826 0)
(66.229 -83.7719 0)
(89.1318 -104.132 0)
(118.165 -123.429 0)
(153.392 -142.494 0)
(189.031 -158.243 0)
(203.484 -164.538 0)
(204.869 -166.819 0)
(193.948 -153.785 0)
(152.607 -143.949 0)
(140.037 -103.618 0)
(132.208 -70.1084 0)
(101.451 -30.6099 0)
(59.4914 -0.295233 0)
(30.0965 4.37035 0)
(28.0498 7.72972 0)
(-0.655959 14.6235 0)
(-1.16404 15.9439 0)
(-25.8868 25.4463 0)
(-44.1776 51.7628 0)
(-59.6212 94.9522 0)
(-28.2858 127.829 0)
(32.8999 133.251 0)
(78.351 107.511 0)
(111.502 75.4605 0)
(108.065 56.036 0)
(69.6998 21.5687 0)
(38.5982 -12.487 0)
(39.3927 -14.0883 0)
(39.2392 -18.7906 0)
(38.78 -16.8325 0)
(35.9365 -14.5161 0)
(34.312 -5.07991 0)
(30.3705 2.86478 0)
(31.3121 8.51195 0)
(31.0945 11.5244 0)
(37.5582 2.86422 0)
(40.1754 -12.1261 0)
(52.4949 -26.8118 0)
(55.3321 -45.5686 0)
(51.756 -66.0978 0)
(61.4568 -86.9426 0)
(85.61 -107.984 0)
(114.853 -126.564 0)
(151.552 -145.479 0)
(187.302 -160.405 0)
(203.137 -167.335 0)
(205.87 -168.325 0)
(196.028 -153.824 0)
(155.256 -144.087 0)
(144.496 -105.433 0)
(136.001 -70.4334 0)
(106.545 -30.974 0)
(61.9241 4.71365 0)
(40.1264 8.18598 0)
(26.7154 17.3458 0)
(2.28331 26.5892 0)
(-16.9099 40.2057 0)
(-42.784 54.163 0)
(-60.2872 74.6321 0)
(-72.5901 99.3539 0)
(-51.996 135.612 0)
(-5.12499 149.798 0)
(26.3968 144.194 0)
(44.9862 113.252 0)
(84.2106 87.5272 0)
(85.673 55.9265 0)
(48.7613 3.06137 0)
(36.3334 -12.7796 0)
(37.6176 -13.5763 0)
(38.085 -13.6632 0)
(36.2403 -11.1799 0)
(36.3052 -7.37735 0)
(33.9567 0.441597 0)
(32.0547 11.3183 0)
(27.5831 12.8436 0)
(31.3045 16.3037 0)
(27.6811 7.38953 0)
(39.0256 -12.8792 0)
(46.6535 -30.9336 0)
(49.5039 -49.2146 0)
(48.1119 -67.0247 0)
(58.3952 -89.4437 0)
(81.9487 -111.499 0)
(112.185 -129.652 0)
(148.299 -148.178 0)
(186.115 -163.079 0)
(203.025 -169.61 0)
(206.946 -169.799 0)
(197.31 -153.443 0)
(158.736 -143.986 0)
(148.28 -107.359 0)
(140.309 -70.8736 0)
(111.522 -31.173 0)
(68.4865 8.24578 0)
(49.5248 11.0402 0)
(38.3508 14.5767 0)
(22.6047 24.6306 0)
(4.25695 34.4828 0)
(-20.7139 55.0123 0)
(-48.0139 76.0361 0)
(-66.0569 105.113 0)
(-56.0894 135.773 0)
(-30.3625 147.732 0)
(-6.88405 144.561 0)
(8.77856 136.21 0)
(22.2882 112.036 0)
(66.5061 87.8614 0)
(60.5541 34.6829 0)
(38.7434 -10.0451 0)
(35.0491 -15.1003 0)
(37.1229 -9.47428 0)
(35.161 -10.6466 0)
(36.6239 -5.3671 0)
(35.14 -1.50274 0)
(35.7729 10.0733 0)
(29.6215 16.5627 0)
(28.5236 20.1892 0)
(25.9155 20.5022 0)
(21.9982 13.053 0)
(27.7028 -10.1528 0)
(40.6298 -33.2008 0)
(45.8649 -50.6011 0)
(43.3632 -67.731 0)
(52.5255 -92.4047 0)
(78.2961 -114.382 0)
(109.007 -132.522 0)
(146.687 -151.215 0)
(184.456 -165.218 0)
(202.861 -172.174 0)
(208.225 -171.127 0)
(199.535 -153.655 0)
(161.143 -144.014 0)
(152.619 -109.347 0)
(144.231 -71.2211 0)
(116.62 -31.2033 0)
(76.2753 10.6844 0)
(59.68 12.8539 0)
(48.9886 19.0321 0)
(32.067 27.6465 0)
(22.227 35.8149 0)
(8.86147 51.6425 0)
(-11.9928 68.9719 0)
(-37.4715 94.92 0)
(-55.062 122.956 0)
(-39.0249 140.129 0)
(-20.8648 141.014 0)
(-10.2121 134.496 0)
(4.90385 121.848 0)
(18.6853 99.2992 0)
(51.3399 68.8776 0)
(39.6771 -2.76989 0)
(39.5585 -13.3301 0)
(36.1759 -11.6949 0)
(36.6404 -7.57618 0)
(35.6943 -5.20206 0)
(34.8902 0.115423 0)
(36.7601 7.17651 0)
(34.6548 15.8067 0)
(32.0685 24.2504 0)
(24.0835 25.5008 0)
(23.363 26.969 0)
(18.5358 18.2875 0)
(25.077 -10.1593 0)
(34.6284 -34.8749 0)
(40.5624 -52.4292 0)
(39.3837 -68.5178 0)
(49.2227 -94.776 0)
(74.5309 -117.336 0)
(106.252 -135.389 0)
(143.449 -153.922 0)
(183.377 -167.783 0)
(202.845 -174.43 0)
(209.773 -172.422 0)
(200.958 -153.583 0)
(164.419 -144.004 0)
(156.296 -111.506 0)
(148.727 -71.6501 0)
(121.567 -31.1215 0)
(84.6939 12.7299 0)
(69.8203 13.3362 0)
(60.0305 20.2734 0)
(44.4585 27.3651 0)
(32.5347 37.7912 0)
(17.5204 48.1586 0)
(13.7251 67.1235 0)
(3.59745 84.432 0)
(-15.9189 105.976 0)
(-31.9541 124.99 0)
(-24.9769 132.222 0)
(-16.6832 130.172 0)
(-7.32837 119.446 0)
(6.14517 100.987 0)
(16.1304 73.2897 0)
(37.3933 20.6826 0)
(37.785 -16.2317 0)
(40.1144 -13.5808 0)
(37.019 -9.1689 0)
(37.1103 -2.82184 0)
(33.7707 -1.62498 0)
(36.4984 6.68254 0)
(35.9373 12.8309 0)
(36.8846 26.2253 0)
(27.6666 29.3979 0)
(24.583 32.6222 0)
(18.5177 32.7104 0)
(12.664 20.8023 0)
(18.3097 -6.79757 0)
(27.4822 -38.6113 0)
(36.8674 -54.1839 0)
(34.8177 -68.599 0)
(42.873 -97.0456 0)
(70.9339 -119.66 0)
(103.088 -138.386 0)
(141.953 -156.965 0)
(181.752 -170.156 0)
(202.905 -176.825 0)
(211.278 -173.663 0)
(203.308 -154.045 0)
(166.645 -144.096 0)
(160.527 -113.63 0)
(152.82 -71.9603 0)
(126.646 -30.9198 0)
(93.6608 14.0068 0)
(79.818 14.2085 0)
(70.3802 20.6654 0)
(57.1169 26.6921 0)
(47.9684 36.5038 0)
(32.2522 46.8708 0)
(23.1451 59.9476 0)
(17.0485 75.886 0)
(17.7585 96.6189 0)
(9.10839 106.439 0)
(-10.7661 117.356 0)
(-15.4058 121.382 0)
(-10.1191 113.927 0)
(-0.960206 97.5551 0)
(6.70742 69.6868 0)
(18.7842 20.8675 0)
(33.4255 -17.8344 0)
(40.3784 -17.2344 0)
(44.1416 -10.1194 0)
(37.8373 -6.95287 0)
(37.4537 0.486215 0)
(35.264 4.6926 0)
(35.6661 12.0619 0)
(38.4776 22.5934 0)
(35.2885 31.7849 0)
(29.2058 37.712 0)
(19.7938 39.0158 0)
(15.0917 38.2902 0)
(8.11345 25.9772 0)
(12.7614 -5.03936 0)
(21.9829 -38.951 0)
(30.3182 -54.9811 0)
(29.8307 -70.7945 0)
(39.1412 -99.2376 0)
(66.8232 -122.141 0)
(100.105 -140.999 0)
(138.874 -159.062 0)
(180.723 -172.482 0)
(202.964 -179.042 0)
(213.104 -174.995 0)
(204.84 -154.313 0)
(169.71 -144.353 0)
(164.125 -115.919 0)
(157.545 -72.2905 0)
(131.535 -30.6509 0)
(103.006 14.9964 0)
(89.9392 14.5979 0)
(80.2936 21.14 0)
(68.2048 27.3161 0)
(59.5722 36.0322 0)
(48.4981 46.3596 0)
(38.394 58.4719 0)
(27.3157 72.2867 0)
(21.0298 85.9658 0)
(25.819 101.946 0)
(21.5872 105.53 0)
(4.94002 109.36 0)
(-7.09599 108.335 0)
(-2.11806 91.2749 0)
(2.8527 68.746 0)
(13.4236 6.64133 0)
(26.4368 -21.0698 0)
(37.0026 -20.8727 0)
(45.2493 -14.8269 0)
(45.3634 -8.57267 0)
(40.1299 -2.71309 0)
(38.4704 4.7593 0)
(34.8331 9.33062 0)
(37.841 19.9459 0)
(38.3215 29.6681 0)
(36.1532 40.7261 0)
(25.6284 44.377 0)
(18.3473 44.9545 0)
(11.2745 44.7332 0)
(0.433678 31.2968 0)
(4.10485 0.0602514 0)
(15.0186 -37.05 0)
(24.8618 -57.5403 0)
(26.1862 -72.0415 0)
(33.3306 -100.574 0)
(63.1152 -123.959 0)
(96.8555 -143.53 0)
(137.267 -161.522 0)
(178.976 -174.812 0)
(203.315 -181.103 0)
(214.658 -176.53 0)
(207.345 -155.077 0)
(171.726 -144.776 0)
(168.307 -118.117 0)
(161.833 -72.492 0)
(136.556 -30.3059 0)
(113.288 15.9025 0)
(99.9583 14.9201 0)
(89.9031 20.9349 0)
(79.9235 27.1977 0)
(69.6308 35.3304 0)
(59.6616 43.9032 0)
(52.4471 56.2853 0)
(44.08 70.914 0)
(33.4739 83.1062 0)
(28.2482 95.9976 0)
(26.7273 105.3 0)
(23.9563 105.797 0)
(10.1055 101.749 0)
(-0.666295 89.1824 0)
(1.35025 61.2426 0)
(20.422 -29.1941 0)
(20.4205 -32.257 0)
(30.0479 -22.8486 0)
(40.9377 -19.715 0)
(47.1967 -13.0437 0)
(48.7448 -6.12613 0)
(41.8074 0.484214 0)
(39.8331 9.80427 0)
(36.3204 15.4847 0)
(39.2003 27.7044 0)
(39.9266 38.6448 0)
(35.2852 48.1434 0)
(24.9455 50.8605 0)
(14.744 52.57 0)
(7.53938 50.475 0)
(-8.7642 38.0191 0)
(-9.68065 12.439 0)
(10.3835 -40.0845 0)
(18.0764 -58.7216 0)
(19.1467 -73.7601 0)
(29.2659 -101.868 0)
(58.743 -125.31 0)
(93.5217 -145.757 0)
(134.451 -163.323 0)
(177.93 -176.981 0)
(203.516 -182.975 0)
(216.788 -178.197 0)
(209.049 -155.821 0)
(174.581 -145.512 0)
(171.893 -120.415 0)
(166.792 -72.664 0)
(141.37 -29.9221 0)
(127.34 16.9375 0)
(110.177 15.3629 0)
(99.2296 20.8926 0)
(90.9118 26.6514 0)
(81.2862 34.8732 0)
(71.3497 43.1059 0)
(63.8431 53.277 0)
(56.9014 66.8027 0)
(48.6681 81.2271 0)
(40.5088 95.2418 0)
(29.3857 103.779 0)
(24.5331 108.71 0)
(18.3037 104.005 0)
(5.72085 90.2173 0)
(2.15358 59.1764 0)
(19.9498 -47.8619 0)
(17.4296 -41.952 0)
(22.7332 -28.9197 0)
(33.843 -20.8586 0)
(42.9903 -18.748 0)
(51.2737 -9.85474 0)
(50.3736 -4.219 0)
(45.7201 6.66545 0)
(40.2289 13.4303 0)
(38.1831 22.3498 0)
(41.2504 34.8576 0)
(40.9389 48.4434 0)
(34.0084 53.7175 0)
(23.3088 59.762 0)
(11.2557 59.499 0)
(4.12454 56.7886 0)
(-17.0008 43.9376 0)
(-22.7471 22.0531 0)
(-1.16911 -30.7823 0)
(11.0985 -59.2156 0)
(15.1854 -77.4813 0)
(24.104 -102.224 0)
(54.686 -126.431 0)
(90.2514 -147.883 0)
(132.768 -165.755 0)
(176.124 -179.584 0)
(204.058 -184.791 0)
(218.405 -180.138 0)
(211.753 -157.147 0)
(176.445 -146.536 0)
(176.103 -122.609 0)
(171.29 -72.7355 0)
(146.308 -29.5029 0)
(147.58 18.5219 0)
(120.348 15.811 0)
(109.011 20.9791 0)
(100.555 26.3024 0)
(91.8686 34.163 0)
(83.1213 41.9562 0)
(74.8558 52.237 0)
(67.7859 65.0962 0)
(60.4724 77.3381 0)
(53.2101 92.2952 0)
(43.0182 105.186 0)
(28.7618 111.701 0)
(18.7024 110.442 0)
(11.1404 92.5885 0)
(1.73504 63.9275 0)
(6.80486 -34.4852 0)
(20.3976 -53.9191 0)
(21.3009 -36.6709 0)
(28.3517 -29.2936 0)
(37.1607 -22.0521 0)
(47.8225 -14.7164 0)
(53.3999 -7.76365 0)
(54.6105 0.111293 0)
(47.8031 11.3863 0)
(42.3623 19.7227 0)
(39.9267 29.2726 0)
(43.8661 43.7857 0)
(41.3705 55.78 0)
(33.5875 61.5897 0)
(21.4085 67.6931 0)
(7.97368 67.2694 0)
(-0.484573 64.5961 0)
(-24.4203 49.7817 0)
(-36.1902 30.6094 0)
(-13.6886 -20.6476 0)
(5.68381 -62.7571 0)
(8.61094 -78.6373 0)
(19.0535 -101.776 0)
(49.9687 -127.854 0)
(86.6848 -150.101 0)
(130.201 -167.455 0)
(175.112 -181.974 0)
(204.316 -186.528 0)
(220.702 -182.259 0)
(213.633 -158.686 0)
(179.189 -147.929 0)
(179.773 -124.815 0)
(176.479 -72.7568 0)
(151.03 -29.0564 0)
(174.77 22.038 0)
(132.973 17.3285 0)
(119.309 20.903 0)
(110.354 26.1059 0)
(101.246 33.5916 0)
(93.8643 40.8394 0)
(85.7929 49.9963 0)
(79.8634 63.2227 0)
(72.3849 75.9459 0)
(64.5012 89.6504 0)
(54.9676 103.878 0)
(41.7889 113.492 0)
(24.6075 115.377 0)
(10.6815 103.649 0)
(3.72625 67.2501 0)
(8.98722 -41.8645 0)
(16.9242 -62.6114 0)
(26.6742 -50.4538 0)
(31.6036 -35.2853 0)
(31.678 -32.8242 0)
(42.8109 -18.393 0)
(50.3409 -13.0038 0)
(57.6243 -3.38092 0)
(57.3342 4.22371 0)
(51.8407 18.298 0)
(42.6961 23.8446 0)
(43.8729 39.904 0)
(45.1613 50.46 0)
(42.1768 65.1286 0)
(31.6726 69.0547 0)
(19.7004 75.7673 0)
(4.68711 75.8671 0)
(-6.22508 71.383 0)
(-31.0067 56.3487 0)
(-48.1709 37.4978 0)
(-27.59 -9.76326 0)
(-2.90742 -62.2837 0)
(5.31201 -79.9388 0)
(14.0882 -101.183 0)
(45.2056 -128.815 0)
(83.1608 -151.801 0)
(128.288 -169.706 0)
(173.341 -184.913 0)
(205.093 -188.344 0)
(222.352 -184.601 0)
(216.476 -160.937 0)
(181.043 -149.663 0)
(184.105 -126.939 0)
(181.178 -72.7357 0)
(155.869 -28.6116 0)
(199.843 26.3988 0)
(150.36 19.9468 0)
(131.056 21.2624 0)
(120.217 25.845 0)
(110.446 33.0167 0)
(103.719 40.1949 0)
(95.7637 48.6728 0)
(90.8737 60.959 0)
(83.1486 73.8195 0)
(76.6645 89.8981 0)
(66.3069 103.555 0)
(53.1783 116.384 0)
(36.1843 119.227 0)
(16.0375 107.03 0)
(3.356 72.0621 0)
(11.1076 -41.247 0)
(15.6067 -77.7067 0)
(27.8646 -67.3333 0)
(40.6775 -45.3837 0)
(35.9403 -35.2644 0)
(38.8863 -24.9129 0)
(45.2119 -16.2567 0)
(54.0561 -9.54177 0)
(60.2299 0.340114 0)
(62.0867 11.0068 0)
(53.3271 23.1566 0)
(45.6751 31.8787 0)
(46.221 47.6639 0)
(47.48 59.2165 0)
(42.309 73.7699 0)
(30.5682 77.1816 0)
(17.4874 84.2051 0)
(1.51425 85.1018 0)
(-12.3758 78.2497 0)
(-38.2254 63.9476 0)
(-60.0703 44.8761 0)
(-42.503 2.00383 0)
(-12.6158 -59.1436 0)
(-0.637648 -81.1097 0)
(9.11559 -101.015 0)
(40.4114 -130.723 0)
(79.6252 -154.682 0)
(125.945 -171.686 0)
(172.367 -187.732 0)
(205.424 -190.245 0)
(224.734 -187.127 0)
(218.469 -163.627 0)
(183.83 -151.674 0)
(187.94 -128.974 0)
(186.578 -72.6718 0)
(160.5 -28.1419 0)
(209.004 28.254 0)
(176.562 25.2694 0)
(144.702 21.7559 0)
(129.389 25.7255 0)
(120.095 32.6738 0)
(113.054 39.5309 0)
(104.676 47.4106 0)
(100.736 59.3455 0)
(94.3472 71.6927 0)
(88.0996 86.8366 0)
(78.7262 103.782 0)
(64.9622 117.603 0)
(47.9429 124.629 0)
(26.6491 112.514 0)
(6.71606 75.5257 0)
(10.6161 -44.5432 0)
(20.4329 -76.9976 0)
(24.6267 -78.4911 0)
(44.7438 -56.142 0)
(47.7064 -46.0044 0)
(44.4509 -33.8538 0)
(43.7662 -23.8157 0)
(50.3445 -12.8904 0)
(56.6533 -6.51033 0)
(64.6795 6.90497 0)
(65.0199 16.6229 0)
(56.7421 30.619 0)
(47.8193 38.6758 0)
(49.8669 56.7414 0)
(49.0358 67.8169 0)
(42.8776 82.268 0)
(28.6575 86.0606 0)
(15.3882 92.9433 0)
(-2.38091 93.9824 0)
(-18.8521 84.5479 0)
(-44.7287 72.9044 0)
(-70.8015 52.4915 0)
(-58.9812 14.0203 0)
(-24.0296 -52.9997 0)
(-6.17088 -81.2582 0)
(4.0963 -101.165 0)
(35.099 -132.123 0)
(75.6357 -157.177 0)
(123.85 -174.433 0)
(170.678 -190.969 0)
(206.315 -192.45 0)
(226.358 -189.85 0)
(221.393 -167.06 0)
(185.816 -153.955 0)
(192.465 -130.949 0)
(191.465 -72.6395 0)
(165.23 -27.7075 0)
(211.482 28.8887 0)
(200.396 29.3331 0)
(161.498 23.4074 0)
(141.236 26.494 0)
(129.582 32.6768 0)
(121.509 38.9924 0)
(113.546 46.6606 0)
(109.121 57.6224 0)
(104.384 70.1963 0)
(99.0966 85.5643 0)
(91.2446 102.365 0)
(79.4293 119.735 0)
(62.0571 128.024 0)
(38.7981 119.633 0)
(15.0966 73.3492 0)
(10.4276 -53.1442 0)
(26.4509 -84.6853 0)
(31.8693 -90.7709 0)
(40.2558 -63.0456 0)
(48.9266 -48.9135 0)
(54.3228 -39.4361 0)
(51.6927 -32.0891 0)
(51.7251 -18.9577 0)
(53.1967 -10.1686 0)
(61.1347 -0.659106 0)
(67.9104 11.8108 0)
(69.3902 24.1739 0)
(58.7528 37.048 0)
(51.0993 46.1572 0)
(53.3356 66.2975 0)
(50.6055 76.9545 0)
(42.9345 90.5575 0)
(27.6872 96.2175 0)
(13.221 100.98 0)
(-6.45806 101.715 0)
(-24.8625 90.6337 0)
(-51.5119 79.8974 0)