# Solver information
# Time        	U_solver      	Ux_initial    	Ux_final      	Ux_iters      	Uy_initial    	Uy_final      	Uy_iters      	U_converged   	p_solver      	p_initial     	p_final       	p_iters       	p_converged   
1             	smoothSolver	1.000000e+00	5.016490e-02	2	1.000000e+00	4.730920e-02	2	false	GAMG	1.000000e+00	4.454150e-02	38	true
2             	smoothSolver	9.657330e-01	6.008740e-02	2	7.664680e-01	4.667600e-02	2	false	GAMG	4.716890e-03	1.774390e-04	5	true
3             	smoothSolver	1.134850e-01	8.304280e-03	2	1.699160e-01	1.086420e-02	2	false	GAMG	7.164650e-01	3.387400e-02	23	true
4             	smoothSolver	9.564030e-02	7.266370e-03	2	1.320850e-01	8.921360e-03	2	false	GAMG	3.509070e-01	1.521510e-02	17	true
5             	smoothSolver	8.406040e-02	1.849480e-03	4	2.161970e-01	1.535550e-02	2	false	GAMG	1.536830e-01	6.355440e-03	7	true
6             	smoothSolver	6.634520e-02	1.073990e-03	4	1.562240e-01	1.270620e-02	2	false	GAMG	9.557230e-02	3.518110e-03	11	true
7             	smoothSolver	4.879140e-02	7.021570e-04	4	1.008880e-01	8.140300e-03	2	false	GAMG	2.841000e-01	1.293380e-02	10	true
8             	smoothSolver	3.367770e-02	4.372940e-04	4	8.111520e-02	7.712840e-03	2	false	GAMG	4.019290e-01	1.723490e-02	6	true
9             	smoothSolver	2.779400e-02	2.590090e-03	2	7.473010e-02	7.190900e-03	2	false	GAMG	4.635400e-01	1.761450e-02	8	true
10            	smoothSolver	2.706730e-02	2.550770e-03	2	8.430750e-02	7.262390e-03	2	false	GAMG	4.001330e-01	1.804730e-02	5	true
11            	smoothSolver	2.492550e-02	2.122150e-03	2	8.611950e-02	6.979160e-03	2	false	GAMG	4.653580e-01	2.218890e-02	5	true
12            	smoothSolver	2.181840e-02	1.732000e-03	2	7.882050e-02	6.622270e-03	2	false	GAMG	5.392880e-01	2.310330e-02	5	true
13            	smoothSolver	1.970000e-02	1.576280e-03	2	6.195320e-02	5.227930e-03	2	false	GAMG	3.912830e-01	1.803940e-02	5	true
14            	smoothSolver	1.797310e-02	1.555520e-03	2	4.824650e-02	3.848460e-03	2	false	GAMG	3.287040e-01	1.375850e-02	5	true
15            	smoothSolver	1.724090e-02	1.553260e-03	2	4.201890e-02	3.195400e-03	2	false	GAMG	3.247010e-01	1.208730e-02	5	true
16            	smoothSolver	1.583540e-02	1.353900e-03	2	3.919400e-02	2.963360e-03	2	false	GAMG	3.614460e-01	1.338490e-02	5	true
17            	smoothSolver	1.364970e-02	1.079010e-03	2	3.684010e-02	2.715390e-03	2	false	GAMG	4.483370e-01	1.923530e-02	5	true
18            	smoothSolver	1.180180e-02	9.336560e-04	2	3.471760e-02	2.565130e-03	2	false	GAMG	5.319980e-01	2.137590e-02	5	true
19            	smoothSolver	1.061520e-02	8.305290e-04	2	3.363590e-02	2.479530e-03	2	false	GAMG	4.754320e-01	1.497940e-02	5	true
20            	smoothSolver	9.832810e-03	7.761030e-04	2	3.303300e-02	2.410160e-03	2	false	GAMG	4.787090e-01	1.076680e-02	5	true
21            	smoothSolver	9.029140e-03	7.087890e-04	2	3.177450e-02	2.301430e-03	2	false	GAMG	4.334130e-01	1.211220e-02	5	true
22            	smoothSolver	8.346520e-03	6.439970e-04	2	2.985570e-02	2.087470e-03	2	false	GAMG	3.340990e-01	9.985480e-03	5	true
23            	smoothSolver	8.101090e-03	6.350600e-04	2	2.808300e-02	1.987760e-03	2	false	GAMG	2.675850e-01	1.323000e-02	4	true
24            	smoothSolver	8.127140e-03	6.264670e-04	2	2.684040e-02	1.899450e-03	2	false	GAMG	2.478250e-01	1.219220e-02	4	true
25            	smoothSolver	8.080670e-03	6.084810e-04	2	2.597740e-02	1.838360e-03	2	false	GAMG	2.426600e-01	7.512140e-03	5	true
26            	smoothSolver	7.884510e-03	5.949400e-04	2	2.537910e-02	1.808840e-03	2	false	GAMG	2.552980e-01	7.894060e-03	5	true
27            	smoothSolver	7.573050e-03	5.667090e-04	2	2.487910e-02	1.788400e-03	2	false	GAMG	2.697240e-01	7.915360e-03	5	true
28            	smoothSolver	7.293990e-03	5.495500e-04	2	2.440460e-02	1.749110e-03	2	false	GAMG	2.874480e-01	1.024140e-02	5	true
29            	smoothSolver	7.098920e-03	5.381850e-04	2	2.395670e-02	1.722850e-03	2	false	GAMG	2.913460e-01	1.114020e-02	4	true
30            	smoothSolver	6.917720e-03	5.321650e-04	2	2.349640e-02	1.688830e-03	2	false	GAMG	2.801440e-01	1.050400e-02	4	true
31            	smoothSolver	6.756070e-03	5.157650e-04	2	2.301080e-02	1.644380e-03	2	false	GAMG	2.537310e-01	9.941340e-03	4	true
32            	smoothSolver	6.649570e-03	5.092670e-04	2	2.257930e-02	1.621380e-03	2	false	GAMG	2.277960e-01	8.241880e-03	4	true
33            	smoothSolver	6.594200e-03	5.050700e-04	2	2.223140e-02	1.593180e-03	2	false	GAMG	2.052400e-01	6.580150e-03	4	true
34            	smoothSolver	6.563210e-03	5.030000e-04	2	2.194590e-02	1.569650e-03	2	false	GAMG	1.950810e-01	9.621350e-03	3	true
35            	smoothSolver	6.525610e-03	5.007740e-04	2	2.170850e-02	1.557030e-03	2	false	GAMG	1.850760e-01	6.265060e-03	4	true
36            	smoothSolver	6.483800e-03	4.940200e-04	2	2.150770e-02	1.539630e-03	2	false	GAMG	1.839230e-01	6.625640e-03	4	true
37            	smoothSolver	6.415210e-03	4.892560e-04	2	2.129990e-02	1.524520e-03	2	false	GAMG	1.806360e-01	8.748060e-03	3	true
38            	smoothSolver	6.345440e-03	4.815650e-04	2	2.107450e-02	1.506100e-03	2	false	GAMG	1.800250e-01	7.839840e-03	3	true
39            	smoothSolver	6.268250e-03	4.782690e-04	2	2.083830e-02	1.488650e-03	2	false	GAMG	1.788230e-01	7.317240e-03	3	true
40            	smoothSolver	6.209600e-03	4.715740e-04	2	2.057520e-02	1.465110e-03	2	false	GAMG	1.642500e-01	6.859630e-03	3	true
41            	smoothSolver	6.147240e-03	4.686770e-04	2	2.031770e-02	1.449710e-03	2	false	GAMG	1.547460e-01	6.616540e-03	3	true
42            	smoothSolver	6.114290e-03	4.662740e-04	2	2.006000e-02	1.435940e-03	2	false	GAMG	1.343820e-01	5.510490e-03	3	true
43            	smoothSolver	6.078300e-03	4.647290e-04	2	1.983490e-02	1.418340e-03	2	false	GAMG	1.505510e-01	5.840910e-03	3	true
44            	smoothSolver	6.053210e-03	4.629520e-04	2	1.964680e-02	1.406500e-03	2	false	GAMG	1.434670e-01	6.013560e-03	3	true
45            	smoothSolver	6.006290e-03	4.585250e-04	2	1.941680e-02	1.387160e-03	2	false	GAMG	1.321350e-01	5.676280e-03	3	true
46            	smoothSolver	5.972170e-03	4.586630e-04	2	1.925790e-02	1.383270e-03	2	false	GAMG	1.339130e-01	5.906900e-03	3	true
47            	smoothSolver	5.921870e-03	4.530920e-04	2	1.905290e-02	1.368210e-03	2	false	GAMG	1.287000e-01	5.735350e-03	3	true
48            	smoothSolver	5.871940e-03	4.497290e-04	2	1.888930e-02	1.357570e-03	2	false	GAMG	1.314440e-01	5.768200e-03	3	true
49            	smoothSolver	5.828100e-03	4.453610e-04	2	1.869810e-02	1.345680e-03	2	false	GAMG	1.191990e-01	5.220850e-03	3	true
50            	smoothSolver	5.776080e-03	4.457460e-04	2	1.854190e-02	1.341440e-03	2	false	GAMG	1.145730e-01	5.049760e-03	3	true
51            	smoothSolver	5.730410e-03	4.412770e-04	2	1.836960e-02	1.327240e-03	2	false	GAMG	1.127320e-01	5.029300e-03	3	true
52            	smoothSolver	5.683130e-03	4.376880e-04	2	1.820050e-02	1.312750e-03	2	false	GAMG	1.280180e-01	5.937290e-03	3	true
53            	smoothSolver	5.652120e-03	4.361540e-04	2	1.806100e-02	1.307600e-03	2	false	GAMG	1.321850e-01	6.117070e-03	3	true
54            	smoothSolver	5.613120e-03	4.343930e-04	2	1.790690e-02	1.295520e-03	2	false	GAMG	1.395660e-01	6.402080e-03	3	true
55            	smoothSolver	5.586290e-03	4.319680e-04	2	1.781630e-02	1.292950e-03	2	false	GAMG	1.460550e-01	6.659990e-03	3	true
56            	smoothSolver	5.548670e-03	4.302420e-04	2	1.768110e-02	1.280990e-03	2	false	GAMG	1.482540e-01	6.760050e-03	3	true
57            	smoothSolver	5.519780e-03	4.288990e-04	2	1.757470e-02	1.285740e-03	2	false	GAMG	1.511930e-01	6.823860e-03	3	true
58            	smoothSolver	5.477290e-03	4.264890e-04	2	1.745300e-02	1.269840e-03	2	false	GAMG	1.510940e-01	6.843770e-03	3	true
59            	smoothSolver	5.443870e-03	4.252740e-04	2	1.734660e-02	1.269510e-03	2	false	GAMG	1.495980e-01	6.818930e-03	3	true
60            	smoothSolver	5.407070e-03	4.256930e-04	2	1.724900e-02	1.260500e-03	2	false	GAMG	1.492640e-01	6.914840e-03	3	true
61            	smoothSolver	5.373360e-03	4.200820e-04	2	1.713170e-02	1.253660e-03	2	false	GAMG	1.466310e-01	6.837670e-03	3	true
62            	smoothSolver	5.337520e-03	4.170400e-04	2	1.704650e-02	1.239350e-03	2	false	GAMG	1.452200e-01	6.807280e-03	3	true
63            	smoothSolver	5.307280e-03	4.167020e-04	2	1.694930e-02	1.240020e-03	2	false	GAMG	1.450490e-01	6.779880e-03	3	true
64            	smoothSolver	5.275210e-03	4.166650e-04	2	1.686310e-02	1.232200e-03	2	false	GAMG	1.419960e-01	6.721310e-03	3	true
65            	smoothSolver	5.244860e-03	4.120950e-04	2	1.674620e-02	1.221960e-03	2	false	GAMG	1.450980e-01	6.993520e-03	3	true
66            	smoothSolver	5.211610e-03	4.102270e-04	2	1.662820e-02	1.212490e-03	2	false	GAMG	1.541950e-01	7.546130e-03	3	true
67            	smoothSolver	5.186740e-03	4.068510e-04	2	1.652570e-02	1.205790e-03	2	false	GAMG	1.537860e-01	4.597530e-03	4	true
68            	smoothSolver	5.165220e-03	4.064360e-04	2	1.643130e-02	1.200480e-03	2	false	GAMG	1.584420e-01	4.878110e-03	4	true
69            	smoothSolver	5.135660e-03	4.039510e-04	2	1.629900e-02	1.191520e-03	2	false	GAMG	1.573150e-01	5.146210e-03	4	true
70            	smoothSolver	5.114860e-03	4.026560e-04	2	1.620660e-02	1.186400e-03	2	false	GAMG	1.612760e-01	5.485070e-03	4	true
71            	smoothSolver	5.085310e-03	3.996020e-04	2	1.609940e-02	1.179730e-03	2	false	GAMG	1.634010e-01	5.671600e-03	4	true
72            	smoothSolver	5.067760e-03	3.984710e-04	2	1.599460e-02	1.173500e-03	2	false	GAMG	1.637400e-01	5.604670e-03	4	true
73            	smoothSolver	5.037730e-03	3.961850e-04	2	1.587590e-02	1.164680e-03	2	false	GAMG	1.605100e-01	5.328140e-03	4	true
74            	smoothSolver	5.018640e-03	3.953900e-04	2	1.576540e-02	1.160830e-03	2	false	GAMG	1.608130e-01	5.142170e-03	4	true
75            	smoothSolver	4.992160e-03	3.935000e-04	2	1.567040e-02	1.154920e-03	2	false	GAMG	1.598950e-01	5.233990e-03	4	true
76            	smoothSolver	4.973150e-03	3.915570e-04	2	1.556520e-02	1.147080e-03	2	false	GAMG	1.581540e-01	5.263650e-03	4	true
77            	smoothSolver	4.951320e-03	3.910230e-04	2	1.548080e-02	1.139660e-03	2	false	GAMG	1.612260e-01	5.278500e-03	4	true
78            	smoothSolver	4.932980e-03	3.897540e-04	2	1.537980e-02	1.134360e-03	2	false	GAMG	1.619660e-01	5.097480e-03	4	true
79            	smoothSolver	4.913280e-03	3.905580e-04	2	1.528960e-02	1.131830e-03	2	false	GAMG	1.598960e-01	4.918650e-03	4	true
80            	smoothSolver	4.889420e-03	3.874960e-04	2	1.519030e-02	1.123080e-03	2	false	GAMG	1.574210e-01	4.921920e-03	4	true
81            	smoothSolver	4.869320e-03	3.857800e-04	2	1.509630e-02	1.118210e-03	2	false	GAMG	1.552940e-01	4.905150e-03	4	true
82            	smoothSolver	4.841410e-03	3.837950e-04	2	1.499350e-02	1.112520e-03	2	false	GAMG	1.529760e-01	4.826000e-03	4	true
83            	smoothSolver	4.824550e-03	3.840710e-04	2	1.492630e-02	1.110340e-03	2	false	GAMG	1.559350e-01	4.841350e-03	4	true
84            	smoothSolver	4.801120e-03	3.806220e-04	2	1.483970e-02	1.098630e-03	2	false	GAMG	1.564390e-01	4.771860e-03	4	true
85            	smoothSolver	4.782520e-03	3.805330e-04	2	1.476550e-02	1.096820e-03	2	false	GAMG	1.601200e-01	4.905920e-03	4	true
86            	smoothSolver	4.759750e-03	3.786200e-04	2	1.468020e-02	1.086160e-03	2	false	GAMG	1.637520e-01	5.045100e-03	4	true
87            	smoothSolver	4.740390e-03	3.771080e-04	2	1.460760e-02	1.084000e-03	2	false	GAMG	1.707070e-01	5.348710e-03	4	true
88            	smoothSolver	4.716720e-03	3.777300e-04	2	1.450850e-02	1.080520e-03	2	false	GAMG	1.741950e-01	5.511140e-03	4	true
89            	smoothSolver	4.697710e-03	3.733290e-04	2	1.445870e-02	1.073710e-03	2	false	GAMG	1.766270e-01	5.530160e-03	4	true
90            	smoothSolver	4.679840e-03	3.734370e-04	2	1.439790e-02	1.071010e-03	2	false	GAMG	1.797970e-01	5.557850e-03	4	true
91            	smoothSolver	4.656910e-03	3.715640e-04	2	1.433880e-02	1.065260e-03	2	false	GAMG	1.823760e-01	5.646500e-03	4	true
92            	smoothSolver	4.634310e-03	3.707100e-04	2	1.426960e-02	1.059940e-03	2	false	GAMG	1.844140e-01	5.674360e-03	4	true
93            	smoothSolver	4.617210e-03	3.697610e-04	2	1.422360e-02	1.057130e-03	2	false	GAMG	1.868440e-01	5.764000e-03	4	true
94            	smoothSolver	4.593610e-03	3.668020e-04	2	1.416590e-02	1.049090e-03	2	false	GAMG	1.860280e-01	5.765670e-03	4	true
95            	smoothSolver	4.575140e-03	3.652280e-04	2	1.410490e-02	1.046600e-03	2	false	GAMG	1.913110e-01	5.918300e-03	4	true
96            	smoothSolver	4.550440e-03	3.625630e-04	2	1.404830e-02	1.041990e-03	2	false	GAMG	1.909990e-01	6.168250e-03	4	true
97            	smoothSolver	4.532980e-03	3.615430e-04	2	1.400510e-02	1.035890e-03	2	false	GAMG	1.956720e-01	6.473820e-03	4	true
98            	smoothSolver	4.507750e-03	3.594510e-04	2	1.393750e-02	1.033960e-03	2	false	GAMG	1.904320e-01	6.257310e-03	4	true
99            	smoothSolver	4.490460e-03	3.581720e-04	2	1.389020e-02	1.029020e-03	2	false	GAMG	1.557260e-01	5.130070e-03	4	true
100           	smoothSolver	4.470020e-03	3.561500e-04	2	1.383330e-02	1.026960e-03	2	false	GAMG	2.017330e-01	6.438850e-03	4	true
101           	smoothSolver	4.451080e-03	3.547060e-04	2	1.378870e-02	1.022170e-03	2	false	GAMG	2.088600e-01	6.953340e-03	4	true
102           	smoothSolver	4.431930e-03	3.536070e-04	2	1.373910e-02	1.021020e-03	2	false	GAMG	2.120900e-01	7.208180e-03	4	true
103           	smoothSolver	4.414380e-03	3.512990e-04	2	1.369600e-02	1.014700e-03	2	false	GAMG	2.100530e-01	7.193720e-03	4	true
104           	smoothSolver	4.393870e-03	3.498590e-04	2	1.365070e-02	1.014650e-03	2	false	GAMG	2.085900e-01	7.040120e-03	4	true
105           	smoothSolver	4.376730e-03	3.480270e-04	2	1.359460e-02	1.008860e-03	2	false	GAMG	2.073480e-01	6.938090e-03	4	true
106           	smoothSolver	4.356970e-03	3.469250e-04	2	1.353920e-02	1.007770e-03	2	false	GAMG	2.160350e-01	6.869390e-03	4	true
107           	smoothSolver	4.340080e-03	3.447550e-04	2	1.348130e-02	9.985350e-04	2	false	GAMG	2.068970e-01	7.236540e-03	4	true
108           	smoothSolver	4.322070e-03	3.441720e-04	2	1.342280e-02	1.000040e-03	2	false	GAMG	2.059000e-01	7.272760e-03	4	true
109           	smoothSolver	4.304170e-03	3.418070e-04	2	1.337670e-02	9.908240e-04	2	false	GAMG	2.063470e-01	7.465470e-03	4	true
110           	smoothSolver	4.288330e-03	3.417930e-04	2	1.331920e-02	9.940000e-04	2	false	GAMG	2.044850e-01	7.272280e-03	4	true
111           	smoothSolver	4.269830e-03	3.394750e-04	2	1.327470e-02	9.848290e-04	2	false	GAMG	2.084650e-01	7.459120e-03	4	true
112           	smoothSolver	4.255070e-03	3.382960e-04	2	1.321840e-02	9.853440e-04	2	false	GAMG	2.134580e-01	7.726320e-03	4	true
113           	smoothSolver	4.239610e-03	3.374350e-04	2	1.318990e-02	9.794200e-04	2	false	GAMG	2.175640e-01	7.822900e-03	4	true
114           	smoothSolver	4.220660e-03	3.356470e-04	2	1.312620e-02	9.765570e-04	2	false	GAMG	2.220950e-01	7.821700e-03	4	true
115           	smoothSolver	4.209500e-03	3.352360e-04	2	1.309560e-02	9.732530e-04	2	false	GAMG	2.247750e-01	7.831010e-03	4	true
116           	smoothSolver	4.194660e-03	3.338240e-04	2	1.306280e-02	9.714890e-04	2	false	GAMG	2.251540e-01	8.052040e-03	4	true
117           	smoothSolver	4.178140e-03	3.319930e-04	2	1.299260e-02	9.668340e-04	2	false	GAMG	2.272630e-01	8.142360e-03	4	true
118           	smoothSolver	4.164850e-03	3.310740e-04	2	1.296770e-02	9.655320e-04	2	false	GAMG	2.252450e-01	8.072170e-03	4	true
119           	smoothSolver	4.150380e-03	3.293590e-04	2	1.289960e-02	9.594820e-04	2	false	GAMG	2.225500e-01	8.193540e-03	4	true
120           	smoothSolver	4.136550e-03	3.284000e-04	2	1.287210e-02	9.595140e-04	2	false	GAMG	2.238100e-01	8.157520e-03	4	true
121           	smoothSolver	4.117660e-03	3.267320e-04	2	1.281210e-02	9.532850e-04	2	false	GAMG	2.207220e-01	7.965890e-03	4	true
122           	smoothSolver	4.107030e-03	3.254100e-04	2	1.275930e-02	9.529360e-04	2	false	GAMG	2.210560e-01	7.915060e-03	4	true
123           	smoothSolver	4.093950e-03	3.245170e-04	2	1.272750e-02	9.482770e-04	2	false	GAMG	2.209380e-01	7.954940e-03	4	true
124           	smoothSolver	4.081850e-03	3.226220e-04	2	1.268340e-02	9.478960e-04	2	false	GAMG	2.207150e-01	7.854010e-03	4	true
125           	smoothSolver	4.064110e-03	3.216320e-04	2	1.263820e-02	9.452710e-04	2	false	GAMG	2.204010e-01	7.661720e-03	4	true
126           	smoothSolver	4.049250e-03	3.203530e-04	2	1.261330e-02	9.437700e-04	2	false	GAMG	2.167960e-01	7.501370e-03	4	true
127           	smoothSolver	4.033660e-03	3.188520e-04	2	1.255840e-02	9.422240e-04	2	false	GAMG	2.145410e-01	7.402100e-03	4	true
128           	smoothSolver	4.020320e-03	3.179830e-04	2	1.253610e-02	9.390120e-04	2	false	GAMG	2.110240e-01	7.260340e-03	4	true
129           	smoothSolver	4.008630e-03	3.162150e-04	2	1.248540e-02	9.367600e-04	2	false	GAMG	2.072930e-01	7.076950e-03	4	true
130           	smoothSolver	3.992630e-03	3.155200e-04	2	1.244160e-02	9.349050e-04	2	false	GAMG	2.053670e-01	7.116950e-03	4	true
131           	smoothSolver	3.977860e-03	3.142300e-04	2	1.241030e-02	9.319520e-04	2	false	GAMG	2.086460e-01	7.032170e-03	4	true
132           	smoothSolver	3.966680e-03	3.130710e-04	2	1.237790e-02	9.314780e-04	2	false	GAMG	1.958510e-01	7.039380e-03	4	true
133           	smoothSolver	3.948650e-03	3.111330e-04	2	1.233740e-02	9.276020e-04	2	false	GAMG	1.929990e-01	6.940010e-03	4	true
134           	smoothSolver	3.933480e-03	3.095570e-04	2	1.230260e-02	9.260070e-04	2	false	GAMG	1.891520e-01	7.112940e-03	4	true
135           	smoothSolver	3.915160e-03	3.085170e-04	2	1.225970e-02	9.250530e-04	2	false	GAMG	1.911470e-01	7.391850e-03	4	true
136           	smoothSolver	3.897620e-03	3.068860e-04	2	1.223710e-02	9.223920e-04	2	false	GAMG	1.842930e-01	7.046260e-03	4	true
137           	smoothSolver	3.883010e-03	3.050800e-04	2	1.219710e-02	9.219990e-04	2	false	GAMG	1.865590e-01	6.538240e-03	4	true
138           	smoothSolver	3.868890e-03	3.043200e-04	2	1.217830e-02	9.208710e-04	2	false	GAMG	1.613630e-01	5.786140e-03	4	true
139           	smoothSolver	3.855630e-03	3.029340e-04	2	1.213770e-02	9.186400e-04	2	false	GAMG	1.893820e-01	7.318570e-03	4	true
140           	smoothSolver	3.836640e-03	3.022320e-04	2	1.210340e-02	9.185060e-04	2	false	GAMG	1.924230e-01	7.605270e-03	4	true
141           	smoothSolver	3.823140e-03	3.003130e-04	2	1.207660e-02	9.145390e-04	2	false	GAMG	1.915900e-01	7.270490e-03	4	true
142           	smoothSolver	3.807030e-03	2.993070e-04	2	1.204080e-02	9.149420e-04	2	false	GAMG	1.853930e-01	6.803400e-03	4	true
143           	smoothSolver	3.792160e-03	2.980650e-04	2	1.202200e-02	9.134240e-04	2	false	GAMG	1.915180e-01	7.325560e-03	4	true
144           	smoothSolver	3.779940e-03	2.969600e-04	2	1.199370e-02	9.111430e-04	2	false	GAMG	1.972930e-01	7.608440e-03	4	true
145           	smoothSolver	3.762910e-03	2.956360e-04	2	1.197450e-02	9.113010e-04	2	false	GAMG	1.919300e-01	7.609860e-03	4	true
146           	smoothSolver	3.746200e-03	2.943520e-04	2	1.194360e-02	9.074070e-04	2	false	GAMG	1.883530e-01	7.143570e-03	4	true
147           	smoothSolver	3.735030e-03	2.929720e-04	2	1.193570e-02	9.073640e-04	2	false	GAMG	1.868620e-01	6.878950e-03	4	true
148           	smoothSolver	3.714630e-03	2.922470e-04	2	1.189460e-02	9.071910e-04	2	false	GAMG	1.791440e-01	6.655200e-03	4	true
149           	smoothSolver	3.705560e-03	2.904790e-04	2	1.188140e-02	9.036300e-04	2	false	GAMG	1.926380e-01	7.127550e-03	4	true
150           	smoothSolver	3.688750e-03	2.894350e-04	2	1.185210e-02	9.032820e-04	2	false	GAMG	1.961390e-01	7.522470e-03	4	true
151           	smoothSolver	3.673750e-03	2.882470e-04	2	1.183060e-02	9.013330e-04	2	false	GAMG	2.016590e-01	7.639080e-03	4	true
152           	smoothSolver	3.663220e-03	2.872440e-04	2	1.181530e-02	8.992910e-04	2	false	GAMG	2.091590e-01	7.648120e-03	4	true
