/*--------------------------------*- C++ -*----------------------------------*\
| =========                 |                                                 |
| \\      /  F ield         | OpenFOAM: The Open Source CFD Toolbox           |
|  \\    /   O peration     | Version:  2212                                  |
|   \\  /    A nd           | Website:  www.openfoam.com                      |
|    \\/     M anipulation  |                                                 |
\*---------------------------------------------------------------------------*/
FoamFile
{
    version     2.0;
    format      ascii;
    arch        "LSB;label=32;scalar=64";
    class       volScalarField;
    location    "50";
    object      omega;
}
// * * * * * * * * * * * * * * * * * * * * * * * * * * * * * * * * * * * * * //

dimensions      [0 0 -1 0 0 0 0];

internalField   nonuniform List<scalar> 
370500
(
2886.46
1703.51
2828.67
2656.62
1708.94
2693.84
2668.69
2726.67
1716.17
2573.74
3757.59
2693.61
2766.61
1737.08
2523.16
3376.41
3839.28
2700.26
2807.63
1767.22
2471.13
9419.08
3457.85
3888.77
2709.94
2832.85
1809.72
2442.83
8800.45
7838.14
3488.12
3883.97
2719.28
2867.75
1855.38
2427.16
14304.3
8313.37
4673.47
3536.45
3890.17
2736.73
2904.74
1913.19
2415.42
27957.5
13198.9
5942.75
3714.71
3603.92
3884.89
2776.45
2955.94
1979.76
2414.97
36570.5
25079.2
10304.6
4243.05
3319.47
3669.31
3889.09
2836.78
3015.26
2040.17
2414.32
42256.2
32851.1
20601.1
7274.58
3597.02
3077.15
3756.58
3908.87
2935.16
3079.52
2097.67
2412.33
46722
37991.3
27600.6
17088.9
5524
3132.71
3087.29
3820.91
3963
3063.84
3152.52
2133.99
2417.18
49851.7
42038.2
31997.8
23709.7
14177.9
4436.44
2979.13
3090.3
3911.56
4071.23
3236.65
3227.74
2152.83
2423.6
49628.4
44900.9
35393.1
27628
20914
12314.9
3666.54
3026.66
3074.4
3958.48
4230.66
3442.28
3320.7
2153.92
2443.63
50092.9
44701
37826.7
30642.2
24468.3
18802
10335.8
3271.41
3168.09
3200.89
3940.5
4421
3673.72
3416.99
2146.08
2491.13
47743.2
45093.7
37594.2
32795.5
27170.6
22053.2
17134.4
8766.44
3115.22
3133.82
3157.51
3816.68
4578.45
3903.71
3546.14
2127.06
2547.88
45087.8
42996.2
37990.2
32561.7
29147.9
24573.2
20145.9
15728.6
7820.07
3045.48
2933.49
3174.62
3626.89
4614.25
4120.15
3691.25
2103.59
2592.18
40537.6
40575.6
36160.2
32863.4
28878.2
26431.1
22519.6
18618.3
14509.7
6755.16
2904.43
2858.45
3128.94
3416.22
4577.32
4325.67
3795.5
2087.46
2618.53
36021.5
36476.9
34125.9
31346.5
29273.5
26060.1
24288.8
20898.3
17279.7
13662.3
5710.25
2792.86
2836.6
2948.22
3204.82
4536.62
4514.92
3773.47
2094.1
2627.44
30914.3
32398
30649.4
29537.2
27816.5
26376.2
23867
22629.5
19552.3
16233.6
12832.1
4927.01
2811.57
2753.1
2838.76
3058.82
4504.21
4708.9
3735.32
2139.97
2637.64
26010.4
27765.6
27181.9
26430.8
26171.7
25217.2
24378.1
22165
21305.7
18436.6
15334.6
11979.2
4378.82
2834.57
2864.81
2816.88
3001.8
4442.13
4897.07
3504.65
2203.88
2658.18
20846.1
23353.7
23256.1
23406.8
23364.5
23728.6
23187.5
22578.9
20802
20257.1
17514.8
14491.8
11077.5
4011.29
2865.56
3872.42
3077.5
3011.86
4347.98
4998.57
3167.53
2241.43
2691.83
15797.1
18635.9
19452.3
19933.5
20580.7
21011.6
21773.4
21637.6
21384.1
19455.7
19377.5
16689.5
13825.3
10138.9
3709.95
3140.32
4684.24
3189.55
3018.15
4268.57
4983.99
2742.78
2233.61
2728.2
10633.1
14160.9
15340.5
16506.2
17319.1
18387.3
19102.8
20239.1
20359.8
20131.2
18831
18687.9
15866.2
13178.6
9051.56
3495.86
3958.25
4443.27
3262.36
3079.97
4380.04
4992.1
2455.13
2194.96
2778.7
5858.35
9485.73
11406.9
12760.7
14251
15462.8
16665.6
17703
19060.2
19454.6
19562.4
17618.4
18092.2
15030.8
12574
7901.05
3596.34
4015.55
3982.79
3267.81
3150.86
4504.69
4887.27
2316.29
2124.53
2828.93
3305.71
4780.3
6364.12
8423.38
10458.6
12434.9
13793.4
15272
16420.3
18175.2
18737.2
18476.3
17047.6
17599.5
14219.4
11935
6863.56
3604.27
3785.25
3739.93
3180.2
3181.99
4719.17
4667.75
2279.92
2031.88
2868.97
2079.44
2730.11
3150.24
3998.98
6178
8725.77
10678
12184.7
13844.2
15388.2
17328.2
18141.5
17949.8
15688.3
17019.6
13501.5
11263.1
6170.74
3468.64
3564.69
3622.14
3123.07
3198.36
4825.84
4371.09
2259.72
1923.26
2902.2
2556.6
2436.22
2510.75
2757.1
3036.28
4517.16
7001.88
9473.62
11174.1
12894.1
14439.6
16606.9
17739.1
16664.2
16061.1
16101.2
12834.8
10620.3
5721.68
3267.05
3400.09
3542.2
3038.92
3175.47
4850.17
4031.93
2221.52
1810.1
2920.47
2664.37
2694.66
2441.72
2633.91
2678.97
2970.52
3719.95
5312.98
7985.01
10043.5
11973.9
13635.6
15998.6
17399.5
17081
17002.4
14997.7
12233.3
10057.4
5382.48
3130.79
3342.59
3524.17
2968.71
3141.79
4823.13
3801.25
2122.45
1698.92
2938.31
2543.89
2708.73
2722.82
2590.56
2705.88
2927.16
3096.9
3515.6
4450.08
6625.99
8371.58
10630.9
12702.5
15228.9
17005.4
17773.9
17804
13983.4
11649.5
9564.79
5201.89
3130.85
3393.51
3535.04
2924.16
3089.66
4774.87
3588.02
1977.9
1596.32
2961.97
2209.65
2564.21
2738.92
2732.85
2915.55
2749.71
3113.37
3372.4
3395.27
4170.7
5683.6
6854.84
8789.14
11381.9
14091.6
16206.4
18914.2
18609.5
13149.7
11088.2
9296.87
5071.74
3162.71
3520.17
3544.64
2862.93
3017.25
4725.01
3509.84
1802.67
1499.86
2984.01
2164.26
2270.89
2496.32
2700.18
2835.52
2948.76
2908.58
3074.26
3319.53
3433.82
4154.28
5072.08
5680.97
6950.54
9808.66
12570.3
14645.3
19040.3
19138.9
12473.8
10634.3
9069.1
4928.74
3359.04
3576.55
3564.63
2828.27
2936.44
4498.66
3336.48
1620.15
1400.15
3006.92
2195.05
2220.99
2224.84
2462.4
2696.25
2908.84
2882.99
3030.7
3090.11
3056.35
3581.94
4168.14
4499.45
4801.02
5792.92
8248.56
11122
12959
19280.3
19226.6
11888.3
10186.8
8853.14
4794.9
3495.37
3541.05
3604.5
2868.17
2843.55
4165.04
3188.22
1457.3
1297.9
3035.39
2205.69
2217.71
2205.97
2222.73
2444.78
2627.09
2898.34
2854.47
3056.66
3000.9
3193.88
3518.05
3679.6
3916.11
4309.54
5157.53
7217.2
9747.38
11482.5
19260
19431.9
11417
9773.04
8593.9
4697.04
3601.34
3908.67
3678.44
2893.07
2782.64
3751.42
2981.78
1319.54
1210.37
3058.13
2320.67
2198.64
2186.13
2197.69
2244.93
2343.95
2589.3
2842.33
2795.65
2991.06
2856.39
3221.96
3015.58
2961
3585.9
4159.42
4805.35
6469.86
8616.82
10339.3
19444.3
19898
11054.6
9425.54
8287.15
4454.46
3810.38
4320.49
3744
2940.63
2712.78
3332.47
2764.77
1229.34
1161.5
3071.71
2088.89
2256.86
2199.16
2167.39
2176.86
2242.34
2318.93
2582.86
2679.34
2814.79
2765.53
2770.79
2729.26
2508.9
2861.82
3433.85
3999.17
4395.04
6045.16
7779.87
9589.01
19495.4
20136.1
10732.7
9053.6
7780.55
4372.04
4001.87
4638.7
3793.86
2964.06
2600.09
2970.88
2531.45
1186.99
1155.53
3088.83
1801.03
1985.12
2120.11
2096.62
2162.03
2156.5
2232.99
2278.84
2490.46
2493.4
2790.62
2531.68
2583.35
2331.58
2544.69
2849.54
3176.82
3611
4073.97
5694.66
7279.97
9101.98
19475.7
19967.1
10332.8
8561.77
7304.84
4197.1
4177.11
4747.06
3840.3
3004.87
2496.02
2663.47
2307.43
1185.36
1162.95
3095.08
1675.42
1810.95
1930.9
2058.22
2029.46
2079.42
2141.79
2202.39
2232.97
2361.73
2372.29
2545.99
2287.84
2312.14
2218.82
2612.94
2776.33
2956.8
3409.44
3907.31
5536.71
6921.37
8860.67
19570.3
19987
9725.12
7933.47
6697
4338.98
4499.22
4680.51
3837.83
3045.88
2406.44
2509.9
2169.66
1200.9
1176.09
3080.82
1770.37
1669.95
1815.71
1850.25
1953.87
1982.98
2038.97
2093.3
2176.11
2223.79
2187.97
2311.83
2296.83
2181.57
2232.26
2228.9
2597.04
2783.53
2944.84
3317.72
3824.22
5264.69
6781.84
8668.34
19625.2
19582.1
9250.1
7252.57
5911.61
4625.49
4948.24
4544.31
3850.5
3074.07
2348.24
2431.12
2125.47
1248.72
1225.56
3103.36
1803.6
1757.33
1606.68
1794.78
1796.51
1850.81
1906.09
1961.02
2023.54
2089.7
2120.06
2053.55
2185.56
2159.73
2172.41
2220.74
2282.56
2673.93
2629.34
2920.17
3257.2
3751.49
5079.2
6511.12
8518.26
19004.6
18585.6
9549.74
7255.36
5453.99
4778.02
5216.54
4468.49
3925.79
3082.2
2319.61
2416.21
2134.33
1352.2
1339.07
3122.8
1256.86
1760.14
1722.96
1609.82
1774.76
1712.5
1725.47
1774.69
1821.7
1879.64
1890.01
1933.79
1926.59
2096.7
2137.27
2191.4
2265.2
2374.66
2540.44
2466.37
2992.81
3401.54
3863.49
4621.85
6402.6
8109.89
17942.2
17282.1
10197.4
7909.7
5547.38
4858.9
4997.04
4438.46
3943.8
3097.69
2315.79
2411.77
2128.75
1489.43
1460.88
3129.01
1115.73
1231.43
1732.81
1714.31
1585.71
1726.08
1624.86
1567.4
1583.74
1621.19
1667.32
1669.65
1758.31
1893.29
2073.74
2146.45
2264.64
2336.49
2394.7
2422.19
2392.46
3252.42
3700.21
4035.49
4618.25
6282.58
8012.69
16619.2
15837.5
10535.1
8911.42
6395.72
5147.52
5619.24
4492.08
3972.93
3085.72
2329.67
2424.51
2132.23
1632.45
1568.76
3113.06
1079.73
1116.27
1215
1668.57
1675.89
1576.78
1629.18
1513.39
1419.18
1419.88
1398.77
1477.58
1503.38
1661.42
1899.38
2091.39
2205.1
2369.05
2337.12
2349.1
2344.3
2454.7
3619.32
4021.46
3935.37
4655.31
5913.16
8289.9
15027.1
14487.8
10690.1
9600.92
7590.63
5733.09
8334.33
4523.5
3986.24
3083.84
2353.1
2451.85
2126.29
1746.29
1623.96
3126.89
1081.7
1086.41
1095.3
1178.82
1625.78
1652.72
1509.82
1499.95
1387.53
1245.2
1211.47
1226.19
1325.08
1421.42
1667.47
1964.65
2146.6
2288.87
2385.98
2292.7
2295.23
2289.81
2708.63
4057.85
3916.66
3876.32
4816.49
5723.5
8899.01
13389.5
13414.7
10549.4
9473.54
8168.22
5978.5
6757.7
4508.68
3981.93
3032.88
2392.18
2489.02
2129.43
1792.42
1632.05
3130.7
1084.64
1082.04
1076.93
1082.96
1151.38
1564.6
1588.3
1410.5
1340.35
1232.88
1106.72
1085.26
1104.78
1276.7
1429.14
1735.05
2051.92
2225.58
2318.92
2361.9
2228.69
2236.72
2281.09
3038.14
3977.82
3781.83
4006.02
4972
5957.18
10065.4
11960.2
12584.9
10266.9
8880.7
7849.75
5859.72
4976.09
4511.7
3975.39
2994.73
2447.87
2504.22
2118.91
1795.61
1627.6
3093.15
1098.2
1080.24
1056.55
1059.73
1068.54
1117.83
1512.68
1532.22
1252.13
1168.64
1075.89
989.938
1006.96
1082.89
1288.72
1499.5
1842.57
2139.91
2246.21
2316.79
2314.28
2162.75
2183.55
2288.67
3220.65
3709.67
4131.98
4261.36
5573.66
6287.5
11025.2
10814.8
11904.8
9985.98
8388.33
7307.18
5778.31
4612.06
4542.19
3985.12
2971.52
2496.82
2497.23
2108.3
1789.76
1623.77
3037.59
1136.98
1087.9
1007.23
1027.68
1027.94
1045.96
1098.81
1450.1
1430.99
1118.69
1006.93
948.349
949.629
1003.31
1116.48
1345.56
1603.78
1947.89
2157.21
2248.19
2304.78
2243.07
2091.9
2129.55
2355.86
3256.16
3816.95
4437.01
4709.62
6034.45
7142.13
11145.2
9935.61
11267.7
9662.58
8114.63
6937.78
5717.96
4731.61
4667.69
3937.95
2963.12
2514.27
2494.92
2103.45
1786.27
1626.9
2990.38
1224.31
1132.65
1043.98
952.522
981.917
1000.46
1027.14
1071.19
1389.68
1320.23
985.361
899.135
899.465
955.994
1038.72
1190.92
1435.16
1686.18
1961.69
2162.33
2221.68
2243.39
2128.59
2026.5
2094.18
2460.13
3313.26
3983.64
4355.11
5248.44
6266.8
8618.66
10417.4
9213.71
10610.9
9268.84
7954.14
6760.19
5724.47
4816.95
4691.76
3930.83
2965.44
2516.09
2502.35
2100.11
1792.09
1618.56
2954.54
1360.15
1216.18
1068.92
977.762
943.646
960.336
992.453
1002.66
1037.21
1292.6
1182.71
915.954
866.38
901.804
998.49
1118.68
1300.93
1519.16
1690.15
1941.26
2133.64
2179.41
2120.78
2010.73
1978.84
2062.21
2605.67
3486.98
4049.68
4786
5841.21
6445.11
9921.34
9771.9
8587.73
9944.93
8848.38
7769.36
6680.96
5716
4860.56
4723.78
3911.46
2964.88
2517.25
2483.13
2082.4
1771.84
1614.33
2929.84
1402.66
1343.8
1139.75
992.205
965.461
920.522
936.771
960.459
975.607
1014.24
1181.75
1083.08
902.368
881.095
942.656
1078.39
1227.11
1400.24
1536.97
1668.22
1923.42
2092.86
2052.6
1966.9
1911.71
1940.94
2094.51
2672.03
3606.17
4046.32
5206.84
6304.93
7154.46
9918.31
9188.8
8002.28
9262.58
8411.74
7537.64
6628.43
5721.1
4867.62
4770.61
3893.19
2971.93
2522.64
2476.35
2024.34
1758.97
1602.96
2915.75
1393.5
1380.51
1277.78
1057.78
971.573
944.014
908.865
926.704
920.453
922.97
983.383
1076.84
1024.29
905.66
923.527
1020.91
1188.75
1319.29
1424.85
1525.1
1650.78
1915.84
1953.43
1831.93
1765.71
1850.13
1922.94
2110.14
2740.51
3657.88
4213.83
5467.25
6425.53
8501.88
8971.79
8767.96
7459.47
8607.36
7995.79
7303.53
6568.49
5736.26
4930.54
4811.11
3863.9
2964.7
2520.47
2443.57
1965.53
1751.65
1593.37
2902.72
1376.64
1383.8
1279.34
1193.98
1024.57
952.858
935.623
900.034
890.736
862.173
844.076
928.574
1010.57
1016.57
933.359
1004.58
1117.62
1276.7
1336.87
1436.62
1507.51
1640.74
1823.98
1748.89
1586.04
1625.4
1822.99
1923.37
2149.28
2713.81
3710.93
4381.11
5658.87
6382.98
9363.18
8054
8527.56
6936.26
8004.84
7626.19
7090.03
6504.93
5728.64
4992.26
4859.67
3835.77
2960.83
2522.67
2424.68
1909.81
1729.5
1590.37
2890.66
1445.31
1383.28
1285.5
1208.16
1147.14
1003.04
933.705
914.189
853.161
834.81
790.17
779.696
865.054
986.936
1035.58
1005.13
1094.54
1180.16
1289.38
1327.81
1415.29
1479.93
1547.34
1613.02
1471.88
1395.08
1572.59
1839.43
1985.43
2173.99
2734.83
3774.21
4604.91
5703.22
7731.97
8465.15
7675.45
8288.44
6448.75
7491.48
7310.65
6912.86
6438.97
5735.6
5053.1
4906.62
3775.02
2948.06
2524.96
2407.14
1877.15
1712.94
1594.01
2874.49
1574.27
1463.24
1365.09
1217.09
1158.64
1108.66
982.591
913.814
876.731
799.796
762.104
728.096
749.829
835.51
989.069
1071.67
1094.42
1137.9
1186.37
1298.8
1314.39
1382.01
1348.2
1348.07
1347.42
1270.77
1332.02
1618.9
1921.82
2016.93
2192.77
2723.66
3852.86
4841.28
5656.08
10672.4
7089.97
7550.8
8016.15
5965.75
7039.42
7056.26
6769.92
6379.14
5723.87
5156.62
4919.99
3708.64
2940.07
2516.38
2361.57
1874.51
1732.44
1617.64
2855.76
1612
1585.77
1470.25
1305.39
1176.65
1130.02
1076.44
954.715
882.419
822.82
731.403
707.346
709.748
753.253
860.014
1024.89
1113.2
1132.42
1136.49
1171.74
1273.21
1293.7
1249.31
1144.05
1104.67
1147.86
1194.03
1350.8
1725.56
1992.83
2032.52
2206.47
2773.37
3949.21
5011.16
5785.71
8414.37
6449.46
7431.16
7732.65
5509.11
6664.58
6868.79
6656.54
6329.35
5726.76
5239.48
4906.31
3657.1
2921.7
2512.3
2319.83
1900.34
1767.07
1621.49
2833.35
1643.23
1617.1
1595.35
1472.67
1283.09
1143.47
1101.45
1020.99
911.474
833.708
760.418
695.97
694.234
720.652
781.842
907.353
1057.2
1127.22
1130.57
1121.87
1149.15
1233.1
1185.77
1071.47
955.005
933.618
1065.04
1200.9
1446.53
1860.6
2042.43
2038.6
2188.66
2754.73
3932.61
5156.48
6131.53
6512.38
6361.15
7304.44
7405.88
5083.92
6336.12
6717.87
6571.74
6290.93
5715.4
5315.43
4838.06
3605.11
2895.25
2515.55
2286.93
1918.61
1794.46
1617.55
2805.66
1839.38
1660.85
1626.05
1593.2
1467.47
1247.25
1113.99
1048.18
955.293
854.438
773.895
718.001
691.087
706.297
753.24
839.519
963.798
1073.62
1122.71
1126.9
1094.37
1101.58
1101.64
1017.46
885.352
831.088
893.053
1081.22
1272.43
1606.64
2019.84
2099.09
2040.21
2182.14
2783.65
4040.28
5303.99
6049.28
5943.52
6345.18
7105.65
7037.1
4666.13
6047.78
6598.37
6495.47
6270.3
5712.84
5360.92
4721.86
3548.07
2877.24
2491.53
2220.75
1915.44
1801.76
1620.95
2767.75
1952.16
1866.04
1667.2
1614.56
1581.55
1436.84
1213.13
1053.57
973.263
876.958
791.94
729.19
704.294
706.179
745.131
820.668
915.913
998.088
1068.3
1113.35
1098.36
1016.83
969.457
930.195
863.615
812.513
835.449
933.215
1158.47
1400.79
1821.55
2186.08
2137.52
2046.4
2224.14
2790.53
4057.43
5401.92
5943.67
5830.7
6184.95
6850.04
6612.34
4303.06
5817.26
6473.53
6434.84
6240.07
5715.13
5363.52
4534.15
3510.47
2857.67
2456.26
2174.97
1921.95
1797.98
1610.26
2721.11
2109.02
2011.32
1900.33
1671.79
1615.45
1576.43
1381.29
1135.2
966.129
883.668
791.016
739.9
716.984
714.474
742.47
815.182
901.855
966.061
997.301
1065.81
1099.48
1024.01
868.017
793.597
769.286
793.016
818.612
875.129
1036.81
1295.92
1593.38
2055.66
2289.13
2141.18
2044.38
2257.98
2829.86
4052.87
5470.96
6012.38
5766.98
5966.66
6501.66
6185.54
3962.64
5597.54
6340.65
6359.11
6167.44
5684.79
5238.88
4317.08
3480.64
2836.67
2382.1
2127.96
1908.2
1794.56
1612
2662.37
2133.89
2184.73
2081.06
1926.58
1679.29
1612.92
1549.36
1274.15
1032.45
862.641
790.386
732.674
720.206
727.406
745.961
809.427
896.452
954.196
971.808
999.334
1044.35
1018.2
870.334
686.769
628.115
681.312
790.784
848.745
987.035
1225.06
1510.19
1836.1
2257.04
2304.23
2133.52
2047.46
2282.57
2808.93
4065.9
5524.72
5886.59
5569.34
5742.78
6096.79
5755.86
3655.81
5413.84
6175.38
6240.28
6020.5
5524.91
4997.47
4101.52
3459.19
2825
2332.05
2111.2
1901.55
1778.47
1576.72
2594.83
2113.77
2183.77
2271.77
2203.03
1951.17
1707.8
1620.77
1487.4
1136.88
909.76
762.773
720.698
705.775
722.595
757.502
805.122
886.388
947.142
958.661
960.913
983.488
982.818
869.985
696.164
571.183
569.271
686.954
825.785
953.59
1189.09
1480.38
1767.11
2081.29
2344.23
2295.78
2131.77
2046.2
2315.58
2853.13
3928.79
5243.53
5747.15
5358.43
5323.79
5672.24
5371.51
3380.16
5209.98
5975.59
6027.74
5795.01
5264.55
4718.18
3922.12
3448.29
2796.94
2277.85
2087.9
1902.44
1755.11
1513.56
2521.7
2314.19
2172.9
2204.84
2409.39
2381.44
2032.6
1765.37
1610.39
1359.43
976.159
793.846
701.268
695.038
710.775
738.927
809.45
872.214
933.834
950.119
958.886
941.694
932.16
854.782
690.87
572.771
540.303
584.898
753.564
924.142
1138.44
1463.46
1739.55
2001.39
2282.42
2360.06
2300.42
2136.96
2046.08
2369.54
2866.99
3813.65
5068.84
5493.58
5038.66
4986.8
5265.69
5005.68
3142.56
5014.82
5731.51
5732.29
5512.92
4964.75
4468.97
3809.78
3432.25
2764.2
2232.97
2086.01
1885.48
1725.29
1397.31
2445.62
2992.52
2448.82
2216.17
2309.35
2631.08
2611.89
2180.98
1808.74
1548.49
1153.87
837.292
715.779
684.16
702.286
730.823
782.503
864.657
905.853
937.253
947.69
939.09
902.094
823.937
688.939
569.674
530.533
551.254
633.775
883.935
1117.55
1373.57
1723.39
1951.59
2178
2417.21
2374.45
2280.46
2104.54
2024.97
2404.9
2886.07
3648.81
4828.94
5093.87
4590.68
4604.72
4908.19
4687.24
2910.97
4796.28
5470.46
5422.28
5188.44
4703.2
4299.76
3717.98
3421.96
2705.63
2207.78
2078.29
1851.24
1591.9
1266.52
2377.5
3974.7
3368.66
2654.76
2332.06
2530.25
2946.73
2876.61
2284.12
1771.42
1383.66
938.747
741.701
694.398
695.19
723.423
774.294
840.399
893.439
907.267
925.739
923.963
878.98
796.943
691.746
557.009
517.42
537.83
584.887
761.739
1082.94
1332.89
1597.31
1926.97
2090.85
2317.56
2452.04
2367.3
2249.19
2030.81
2010.54
2470.31
2894.32
3569.36
4499.69
4606.34
4196.53
4298.55
4593.03
4401.98
2709.67
4600.59
5208.7
5176.94
4911.52
4508.81
4159.06
3675.53
3404.47
2634.59
2196.13
2089.29
1769.01
1429.44
1135.16
2312.79
4580.86
4633.07
4105.49
2885.5
2536.58
2851.06
3365.52
3118.75
2292.42
1637.41
1156.31
800.311
712.393
702.111
720.881
773.098
835.056
879.093
891.252
894.332
911.686
860.869
758.082
657.699
552.609
510.716
523.515
567.604
699.309
964.937
1306.78
1544.64
1775.34
2038.31
2177.96
2408.88
2456.38
2342.47
2146.1
1895.06
1995.32
2499.67
2846.66
3446.88
4165.41
4201.17
3830.98
4038.1
4314.71
4136.43
2525.42
4404.67
4957.13
4970.21
4705.51
4361.42
4055.52
3647.95
3378.53
2543.45
2200.71
2135.18
1662.42
1255.86
1024.95
2245.76
5107.23
5329.75
5747.47
4637.14
3071.27
2871.35
3324.48
3823.55
3245.92
1977.75
1461.9
940.848
763.73
718.205
722.908
774.509
835.572
870.871
880.623
879.878
871.941
840.459
733.912
607.869
533.837
509.972
519.576
551.754
670.558
882.335
1193.67
1511.94
1706.03
1870.67
2067.66
2238.24
2439
2445.19
2320.94
1990.45
1756.12
1969.32
2516.97
2824.77
3384.03
3955.25
3823.29
3537.96
3805.66
4069.1
3900.91
2369.78
4273.3
4732.38
4815.58
4574.18
4275.7
3976.38
3637.87
3325.78
2480.25
2215.74
2208.4
1567.39
1120.91
942.438
2172.73
5374.74
5959.71
6464.62
6609.79
4981.42
3229.83
3333.95
3959.4
4238.52
2883.3
1555.48
1284.14
855.306
768.113
738.119
774.243
836.869
870.687
870.442
869.382
859.827
799.991
728.63
610.087
492.609
492.845
518.413
550.476
649.687
845.207
1105.53
1407.66
1660.18
1801.16
1908.31
2077.84
2273.77
2437.93
2441.23
2288.37
1859.55
1679.98
1963.59
2513.08
2787.19
3356.88
3704.91
3553.26
3354.32
3607.7
3820.14
3686.37
2233.36
4173
4547.41
4684.18
4490.14
4220.2
3918.43
3635.43
3272.4
2399.15
2269.53
2315.09
1525.96
1062.98
887.359
2084.37
5797.44
6436.26
6897.42
7180.37
6990.42
4995.55
3466.47
3938.36
4570.33
4277.73
2159.74
1291.21
1124.49
842.913
784.567
783.568
834.945
873.746
870.47
860.675
850.795
796.975
662.192
582.285
482.917
465.612
507.233
548.53
647.307
824.305
1061.82
1327.89
1577.16
1748.73
1844.56
1929.71
2089.31
2306.48
2431.98
2447.71
2256.39
1767.42
1645.89
1972.37
2478.98
2770.99
3271.25
3560.62
3361.4
3205.36
3411.45
3630.24
3498.56
2116.23
4142.36
4413.76
4607.39
4444.9
4177.09
3878.46
3623.9
3226.07
2330.02
2354.41
2469.04
1521.9
1063.2
859.277
1987.62
6637.87
6952.35
6931.08
7225.43
7740.35
6918.26
4769.34
3915.85
4592.61
5110.95
3643.56
1398.82
1218.61
1002.82
851.425
825.291
843.814
871.63
874.457
865.971
839.907
788.759
672.749
530.019
472.353
449.43
476.068
545.567
645.804
810.073
1029.35
1285.4
1515.25
1694.83
1792.33
1867.09
1950.05
2104.53
2331.8
2447.76
2422.47
2187.81
1705.01
1638.54
1977.81
2469.66
2750.36
3213.33
3428.72
3189.17
3083.9
3219.46
3407.55
3316.75
1999.01
4119.53
4337.14
4540.38
4408.44
4148.95
3848.36
3601.68
3139.29
2283.87
2476.03
2680.97
1525.06
1080.84
857.697
1878.67
7539.08
7593.28
7185.09
6822.46
7772.53
8128.35
6618.1
4791.8
4592.64
5282.16
5303.65
2327.41
1141.13
1137.03
952.895
879.082
877.571
879.53
873.354
861.876
842.135
781.806
672.353
545.597
434.957
430.867
461.35
513.613
663.557
814.661
1011.32
1244.99
1475.45
1654.94
1752.18
1815.74
1884.48
1977.37
2116.33
2358.16
2430.29
2399.72
2170.83
1671.81
1628.62
1952.49
2460.31
2736.75
3128.78
3281.1
3086.93
2970.84
3055.59
3231.22
3164.93
1903.32
4119.46
4316.86
4509.54
4391.79
4125.43
3828.73
3576.63
3061.23
2248.85
2657.9
2912.08
1527.85
1157.52
869.672
1778.5
8139.62
7978.74
7595.15
6711.35
6551.76
8717.23
8237.17
6695.34
4851.78
5249.74
5925.4
4747.9
1351.15
1082.49
1054.98
948.521
922.58
902.464
880.178
861.127
840.218
779.408
674.955
549.386
450.348
420.393
442.539
498.187
624.635
833.23
1011.93
1214.94
1441.95
1631.51
1751.19
1784.95
1838.89
1904.7
2008.04
2136.68
2375.37
2426.14
2401.88
2114.41
1644.7
1623.58
1946.49
2451.4
2731.19
3050.61
3171.5
2972.86
2853.15
2859.08
3129.38
3006.1
1806.56
4137.73
4317.48
4480.05
4377.02
4116.04
3809.94
3525.95
2945.36
2206.38
2913.22
3056.04
1519.33
1317.09
906.311
1697.87
8142.34
8209.83
7459.75
6518.01
5607.07
7115.37
9196.46
8593.78
6928.62
5457.59
5911.16
6283.17
3061.48
1110.69
1067.01
999.927
954.852
943.643
902.207
867.947
845.413
774.747
665.629
534.817
450.992
429.513
431.043
480.284
605.224
799.904
1028.73
1208.88
1383.92
1594.06
1739.06
1809.21
1804.81
1867.29
1931.29
2031.13
2172.43
2372.37
2422.26
2363.03
2067.26
1631.92
1612.19
1920.18
2419.84
2728.39
3011.12
3036.51
2867.38
2733.84
2731.75
3044.21
2865.9
1704.82
4215.53
4374.07
4479.87
4377.46
4103.92
3777.81
3457.44
2821.13
2169.13
3251.04
3062.26
1516.98
1571.23
984.456
1618.74
8257.77
8237.07
7622.79
6311.74
4974.48
5266.09
7100.95
9267.49
9364.08
7590.15
6162.3
6486.83
6093.54
1510.32
1075.99
1041.14
978.994
953.007
939.959
896.763
844.414
766.863
641.987
536.012
444.792
429.399
438.143
474.857
586.821
770.444
1014.59
1211.99
1362.13
1530.96
1708.23
1813.54
1839.46
1833.76
1898.35
1960.03
2044.6
2187.44
2359.84
2411.11
2361.06
2013.58
1610.51
1602.64
1891.28
2365.45
2718.11
2954.51
2886.4
2736.63
2593.5
2623.52
2896.63
2741.1
1621.32
4329.29
4417.19
4475.01
4378.48
4088.21
3717.73
3332.79
2736.89
2164.3
3623.39
3026.1
1556.65
1921.68
1091.43
1575.87
8001.67
7866.15
6841.79
5782.42
4577.61
4141.41
4964.65
6479.71
9179.39
10070.1
8282.42
6695.08
6998.42
4686.12
1128.38
1071.03
1018.64
975.339
952.131
932.349
858.28
778.625
659.73
515.365
430.112
405.816
440.139
475.827
573.704
747.863
969.111
1225.82
1363.1
1492.53
1643.13
1791.56
1863.46
1864.25
1871.93
1930.36
1984.54
2049.63
2202.72
2357.91
2407.34
2300.15
1969.92
1596.18
1574.84
1864.53
2287.65
2664.42
2869.63
2774.15
2573.05
2439.54
2498.25
2784.27
2608.61
1525.5
4398.98
4441.39
4475.79
4369.27
4055.73
3606.2
3159.52
2669.03
2158.46
3914.47
2999.09
1672.53
2352.39
1211.57
1513.71
6686.94
6696.22
5747.66
5529.17
4557.15
3649.54
3896.15
4253.48
5919.11
9035.15
10405
8800.42
7041.67
7008.09
2211.54
1086.45
1067.24
1008.93
971.738
937.434
890.815
760.525
655.154
525.405
412.079
396.069
414.666
481.399
573.429
729.397
939.355
1157.67
1388.95
1489.55
1577.3
1719.47
1852.11
1899.4
1895.54
1914.8
1962.11
1988.06
2045.79
2212.28
2367.02
2375.97
2293.28
1895.42
1560.18
1538.66
1821.77
2232.21
2544.06
2708.34
2595.75
2433.71
2289.29
2417.64
2666.32
2512.65
1424.76
4439.66
4447.72
4475.54
4351.8
3954.23
3443.85
2937.83
2580.15
2177.88
3951.47
2928.9
1874.6
2794.18
1325.66
1459.06
5731.29
5312.41
5659.89
5448.46
4286.65
3503.96
3440.19
3538.78
3908.98
5307.59
8345.32
10283
8910.26
7273.01
6297.31
1192.35
1083.54
1058.38
1004.72
945.45
886.26
805.983
632.836
525.09
423.85
394.695
407.175
444.787
579.939
728.635
916.489
1122.01
1312.92
1492.84
1563.97
1632.09
1772.31
1898.72
1936.05
1928.91
1959.5
1993.02
1987.43
2042.83
2205.13
2350.88
2344.5
2263.98
1836.41
1536.22
1498.88
1763.43
2173.12
2466.19
2568.78
2442.4
2288.12
2166.54
2256.79
2515.06
2396.55
1332.64
4447.23
4454.65
4459.08
4269.76
3787.18
3263.46
2755.36
2534.67
2209.54
3886.51
2825.9
2120.28
3114.6
1413.6
1384.9
5184.63
5099.04
5710.93
5509.4
4343.02
3343.75
3317.37
3295.94
3452.21
3851.81
4720.47
7397.63
10066.7
8692.6
7258.1
4132.03
1090.78
1068.77
1050.33
983.038
901.949
810.012
682.544
498.229
420.237
405.799
407.953
438.005
542.444
731.711
911.718
1088.62
1270.74
1426.63
1551.04
1598.36
1673.49
1817.65
1938.76
1975.83
1972.85
1999.9
2000.85
1995.52
2051.39
2224.94
2345.95
2330.05
2242.35
1821.48
1504.19
1474.34
1677
2074.27
2401.46
2476.71
2294.94
2169.16
2066.96
2228.25
2433.81
2290.98
1232.94
4453.63
4458.21
4407.55
4128.29
3597.97
3107.77
2630.87
2470.52
2279.55
3786.95
2736.17
2372.71
3184.85
1457.45
1311.7
4736.37
5005.46
5714.8
5528.64
4192.98
2802.48
3007.75
3121.86
3248.77
3403.31
3880.38
4315.74
6399.71
9474.66
8177.63
7077.25
1801.74
1071.6
1059.2
1028.65
949.603
812.549
677.16
550.195
412.841
396.802
418.341
437.63
536.669
693.774
909.063
1086.64
1234.59
1375.36
1491.42
1581.85
1617.24
1701.3
1860.91
1980.6
2010.62
2004.68
2010.22
1998.87
1990.78
2045.1
2213.29
2321.61
2332.03
2212.95
1819.31
1499.38
1457.57
1618.08
1972
2312.81
2369.83
2172.01
2051.25
1942.41
2205.6
2359.86
2203.06
1147.11
4456.56
4443.22
4288.32
3957.98
3415.14
2984.07
2557.2
2443.63
2351.98
3703.58
2666.81
2560.95
3199.24
1464.33
1254.41
4394.14
4925.29
5755.77
5588.72
4212.87
2310.51
2508.23
2486.32
2968.15
3195.31
3321.16
3707.93
4090.99
5445.39
8523.47
7379.53
5785.66
1171.95
1062.65
1045.62
989.968
877.775
687.092
546.188
447.616
390.163
406.913
447.473
537.216
684.672
873.876
1091.16
1226.06
1332.8
1417.47
1524.36
1595.56
1632.77
1725.49
1901.07
2012.93
2015.96
2010.18
2001.55
1994.54
1993.09
2049.44
2213.9
2310.56
2296.16
2199.78
1915.69
1531.09
1451.55
1589.55
1860
2203.21
2258.97
2071.67
1933.09
1873.78
2101.74
2266.4
2113.11
1067.61
4441.97
4355.41
4126.99
3786.24
3256.57
2917.96
2537.91
2343.07
2311.89
3320.74
2662.53
2623.87
3128.97
1457.4
1234.75
4341.86
4922.2
5673.92
5724.68
4675.96
2402.46
2176.24
2231.03
2356.76
2872.68
3092.43
3336.68
3700.93
3781.63
4746.09
7396.66
6326.72
3528.36
1089.38
1051.98
1008.32
919.912
764.445
563.835
452.689
413.549
398.931
435.248
548.479
685.743
865.015
1049.73
1224.13
1324.03
1387.41
1438.32
1539.62
1604.34
1646.56
1750.04
1937.14
2019
2014.52
2004.81
1999.03
1989.31
1988.89
2049.21
2210.35
2317.94
2284.99
2190.1
1960.41
1563.79
1449.38
1564.49
1787.54
2117.57
2192.39
1944.24
1865.79
1821.02
2028.48
2174.23
2057.55
1006.46
4356.64
4202.26
3948.28
3635.92
3144.53
2903.33
2552.73
2240.67
2208.88
2988.27
2628.45
2617.12
3076.85
1449.24
1249.92
4347.99
4895.23
5519.51
5654.75
4783.8
2948.76
2207.54
2124.46
2213.62
2543.32
2848.7
3096.4
3264.52
3637.52
3520.98
4223.46
6384.82
5221.63
1771.35
1065.7
1024.83
940.754
814.958
640.956
458.954
414.812
423.184
436.196
529.438
700.454
865.818
1042.89
1195.71
1326.68
1361.3
1408.09
1452
1551.96
1610.41
1660.62
1772.88
1953.53
2009.51
2018.83
2010.85
2021.48
2007.96
1991.29
2056.77
2216.96
2284.56
2245.02
2182.05
1953.87
1557.58
1448.04
1550.55
1747.34
2021.03
2063.12
1862.33
1802.53
1740.41
1900.63
2066.47
1968.93
960.6
4166.71
4019.52
3786.21
3525.91
3077.49
2891.64
2555.14
2204.73
2122.48
2802.66
2540.53
2623.2
2897.86
1444.25
1307.76
4441.52
4890.98
5257.9
5566.12
4860.84
3832.98
2574.94
2165.29
2185.23
2407.99
2785.64
3061.62
3174.73
3241.78
3488.72
3096.69
4266.81
5211.6
3951.95
1247.34
1042.81
974.091
846.724
686.963
528.156
431.934
424.407
447.334
528.555
674.42
878.831
1039.13
1184.7
1297.71
1357.7
1370.98
1419.66
1468.17
1562.77
1619.77
1677.9
1779.81
1952.6
2004.85
2016.67
2025.5
2021.38
2002.09
1991.86
2043.81
2202.41
2251.67
2223.06
2157.9
1985.13
1560.73
1447.05
1539.47
1706.41
1875.43
1936.49
1817.67
1740.46
1729.82
1826.88
1986.07
1909.64
915.494
3923.38
3847.01
3654.63
3458.11
3066.06
2882.18
2553.11
2154.52
1954.94
2571.01
2453.47
2579.63
2608.07
1419.39
1428.64
4441.44
4848.42
4965.93
5256.33
4726.74
4407.48
3629.38
2609.52
2175.49
2384.22
2620.54
3031.31
3159.05
3159.76
3188.76
3130.53
2772.53
3895.13
4122.21
2630.38
1082.96
997.591
885.036
725.435
574.959
477.459
441.354
448.431
527.106
672.379
853.381
1048.96
1183.51
1285.29
1338.33
1372.33
1379.87
1428.2
1488.34
1574.21
1625.23
1690.55
1788.14
1941.72
2010.25
2018.01
2009.6
2016.53
1997.4
1980.66
2036.57
2164.81
2219.8
2188.5
2142.63
1954.31
1564.57
1453.17
1543.07
1694.67
1793.7
1874.72
1744.3
1695.58
1696.57
1836.95
1893.72
1917.47
895.11
3634.84
3681.85
3554.66
3427.5
3057.83
2886.18
2551.81
2145.81
1858.88
2501.66
2317.64
2499.29
2265.03
1389.79
1613.08
4447.74
4823.74
4850.52
4910.31
4778.64
3766.36
4867.84
3483.14
2481.11
2300.47
2590.91
2868.69
3211.22
3222.85
3145.72
3159.33
2716.08
2561.89
3746.71
3242.56
1594.36
1012.16
913.565
780.771
626.898
521.174
481.156
464.443
528.634
670.832
850.296
1029.22
1185.41
1271.21
1326.93
1355.12
1380.35
1390.6
1438.95
1509.59
1587.2
1619.53
1686.59
1780.22
1935.15
1987.22
2016.94
2028.07
2015.04
1992.27
1975.01
2032.18
2073.78
2150.62
2174.79
2138.76
1994.57
1629.07
1464.14
1526.75
1679.02
1754.9
1806.97
1692.46
1640.41
1643.91
1757.04
1908.67
1864.34
883.093
3329.55
3561.53
3503.89
3419.41
3078.91
2935.84
2574.93
2155.28
1812.02
2383.5
2082.12
2265.99
1973.5
1339.97
1853.17
4394.23
4756.23
4900.66
4723.31
4592.9
3693.4
4092.21
4804.69
3235.38
2272.33
2498.18
2851.1
3161.44
3344.17
3205.33
3113.55
2989.41
2443.61
2465.63
3326.21
2417.09
1144.5
940.408
802.576
668.657
588.346
522.872
500.278
544.161
674.493
851.931
1027.74
1172.09
1271.73
1295.25
1334.62
1365.45
1389.11
1404.71