/*--------------------------------*- C++ -*----------------------------------*\
| =========                 |                                                 |
| \\      /  F ield         | OpenFOAM: The Open Source CFD Toolbox           |
|  \\    /   O peration     | Version:  2212                                  |
|   \\  /    A nd           | Website:  www.openfoam.com                      |
|    \\/     M anipulation  |                                                 |
\*---------------------------------------------------------------------------*/
FoamFile
{
    version     2.0;
    format      ascii;
    arch        "LSB;label=32;scalar=64";
    class       volScalarField;
    location    "50";
    object      p;
}
// * * * * * * * * * * * * * * * * * * * * * * * * * * * * * * * * * * * * * //

dimensions      [0 2 -2 0 0 0 0];

internalField   nonuniform List<scalar> 
370500
(
-785.035
-47.315
-3152.31
5336.78
-3210.05
-6480.31
-6077.53
4170.72
-6912.4
-9039.11
-10222.6
-13616.1
823.353
-10637
-11332
-5188.88
-18060.4
-21327.4
-5006.58
-13840.3
-13949.5
-4567.51
-18392.4
-24398.8
-28191.4
-11219.7
-17866.3
-17123.5
-16296.7
-16198.6
-35298.3
-31503.4
-35471.3
-17872.9
-22030.6
-20618.2
-29160.2
-46816.3
-27662.4
-55603.2
-40328.9
-41909.8
-25999
-26477.5
-24180.1
-108183
-72139.9
-65624.2
-42475.6
-74135.4
-49563.4
-48293.7
-35370.8
-31530.3
-27712.2
-221006
-216926
-92477
-84781
-60593.5
-90945.2
-59651.5
-54776.4
-45786.6
-36502
-31341
-317778
-431819
-169850
-129350
-107577
-81316
-108838
-70456.1
-62172.3
-56168.8
-41777.6
-34760
-378971
-620657
-350946
-156556
-158022
-125399
-101888
-126838
-82802.1
-70295.4
-66004.7
-46935.2
-38194.4
-413715
-739852
-505767
-277277
-190317
-178609
-142548
-122721
-146791
-96420
-80100.2
-75686.8
-51989.6
-41519.3
-401603
-810670
-605325
-387425
-299065
-212601
-197745
-160692
-144281
-169091
-111190
-90224.9
-85564.3
-56758.4
-44814.1
-398248
-786995
-671102
-461478
-402760
-333903
-225927
-214359
-179830
-164931
-193253
-126299
-102197
-95371
-60986.9
-48008.1
-371429
-780820
-652212
-515155
-471557
-437939
-334718
-242888
-233525
-199438
-186052
-218270
-142458
-114415
-105267
-64742.4
-51007.7
-332015
-727117
-646523
-500788
-522250
-508044
-427268
-344990
-262868
-254422
-217423
-203552
-243214
-159075
-128099
-114357
-68050.9
-53648
-276958
-650169
-599766
-494977
-501986
-559590
-489798
-426861
-363419
-286143
-278034
-235723
-219538
-266554
-177180
-141766
-122249
-71140.4
-55844.5
-221917
-544026
-533341
-461308
-496357
-532902
-537551
-482808
-433852
-382655
-317043
-303370
-255159
-236041
-287730
-194741
-156155
-127637
-74325.1
-58000
-165459
-437239
-446950
-410866
-468074
-525924
-509174
-523285
-483644
-438894
-398414
-350903
-332419
-275146
-251771
-304976
-212138
-169707
-130479
-77273.3
-59856.4
-114973
-326992
-359971
-347622
-420031
-499156
-515331
-485116
-519485
-481264
-444767
-413841
-385272
-365474
-291027
-263439
-316972
-226307
-181990
-130698
-79640.4
-61671.6
-69763.5
-228342
-268505
-282411
-357223
-446266
-480325
-502668
-470123
-514700
-478632
-454662
-430973
-419042
-392634
-304709
-271484
-324153
-237086
-191574
-130171
-81547.1
-63287.1
-35425.9
-141247
-185478
-211197
-293514
-379424
-427741
-472638
-488861
-459098
-510340
-481112
-472131
-445035
-451588
-412190
-321578
-278792
-328784
-244196
-197633
-129895
-83124.8
-65039.1
-11680
-72225.3
-105534
-148783
-225590
-312225
-366630
-421316
-470333
-467172
-455621
-511544
-492395
-499406
-459279
-481597
-431542
-344738
-286899
-330647
-248715
-198830
-131180
-84911.8
-66823.8
-2245.34
-26251
-53457.2
-94226
-164293
-240062
-304848
-364349
-422804
-461896
-441177
-464685
-520734
-511684
-531799
-490296
-507535
-453627
-373773
-296319
-331133
-251121
-194268
-132976
-87004.8
-68484.8
-540.109
-8323.17
-24863.7
-56954.1
-108050
-175046
-239429
-305807
-370063
-421403
-454651
-430305
-481707
-535609
-534582
-565486
-529751
-531116
-476382
-406720
-307114
-330479
-252843
-185349
-134506
-89141.8
-70105.4
-498.714
-3626.95
-13980.6
-32864.3
-67058.9
-114523
-180859
-245762
-313760
-375300
-420679
-456357
-438804
-486417
-550818
-558431
-598853
-565992
-556375
-502704
-440601
-319178
-329168
-254654
-174909
-134397
-91085.1
-71364.7
-831.853
-2344.97
-7302.55
-20417.8
-39093.5
-74502.8
-123640
-191528
-257701
-324820
-381976
-421963
-465566
-444605
-476727
-560946
-583537
-630832
-605453
-585378
-533012
-473208
-332224
-327368
-256672
-165699
-133253
-92692.6
-72539.1
-1006.89
-2900.15
-5201.16
-11765.1
-26926.6
-47867
-85464.7
-135846
-206570
-271462
-336428
-392357
-430185
-476853
-431064
-453722
-572122
-612856
-665327
-645473
-616330
-564307
-503004
-346276
-325411
-257862
-158452
-132302
-94136
-73328.2
-1413.28
-2554.15
-5547.36
-8861.45
-17658.6
-33163.8
-58863.4
-101670
-147618
-224059
-290598
-353402
-411380
-448207
-487065
-406512
-422154
-588255
-648071
-700929
-681717
-648763
-594819
-528753
-360292
-323938
-257544
-152806
-131978
-95114.2
-74075.9
-1131.82
-3741.48
-4747.3
-8763.35
-13384.5
-23994.6
-40552.9
-70852.5
-117331
-163952
-245038
-314115
-377067
-437604
-475547
-500664
-382492
-393163
-615115
-683154
-736843
-711859
-682482
-623803
-549115
-374268
-322348
-255354
-149810
-132101
-95700.7
-74598.7
-1222.93
-3311.52
-6378.35
-8083.96
-12752.7
-18612.8
-31076.5
-48971.3
-86783.1
-134304
-185069
-271256
-343055
-404723
-473365
-510466
-522791
-369558
-378595
-652307
-720290
-773593
-737101
-715131
-649392
-564061
-387712
-321462
-252729
-147057
-132133
-95966.6
-75094
-1125.54
-3620.95
-6128.16
-9799.15
-12148.4
-17434.9
-25095.3
-39216
-62283
-102764
-153532
-211334
-300952
-378272
-436503
-512490
-551740
-560840
-372132
-388934
-698314
-766638
-809794
-760481
-748595
-669614
-573326
-400304
-319541
-249248
-144798
-132214
-96199.8
-75369.6
-866.528
-3351.02
-6934.11
-9640.1
-13790.4
-16573.8
-23249.7
-32294.6
-49934.9
-78390.3
-119102
-176646
-242342
-332831
-418681
-474917
-561125
-600471
-616111
-397626
-427882
-753252
-825340
-844561
-784289
-782182
-683094
-577202
-411768
-318061
-244787
-143361
-132045
-96081.3
-75575.3
-440.05
-3028.08
-6746.74
-10556.7
-13649.4
-18320.1
-21901.1
-30252.1
-40763.6
-63053.8
-95330.6
-138301
-203425
-274006
-363075
-462162
-518468
-624373
-655898
-683958
-453965
-499658
-818736
-897745
-877088
-808395
-812727
-691110
-576393
-421171
-316734
-240784
-142174
-131696
-95894.9
-75575.1
430.963
-2713.58
-7003.71
-9976.26
-14703.6
-18232.8
-23492.9
-28277.7
-38701.5
-51066.9
-77576.7
-114535
-161147
-230660
-302877
-393221
-501733
-569700
-687950
-718297
-762494
-549834
-604709
-897999
-983730
-907008
-830460
-839926
-699487
-572663
-428227
-315131
-236753
-141381
-131061
-95448
-75426.4
524.872
-2802.91
-6127.59
-10969.5
-14103.9
-19156.9
-23377.4
-29441.2
-35883.6
-47678.3
-63382.1
-93520.4
-136822
-186084
-256965
-331366
-425254
-539116
-624209
-745522
-789116
-847319
-690934
-741874
-990394
-1.06472e+06
-939781
-851623
-863477
-716606
-568072
-432590
-313076
-232268
-140464
-130200
-94861.7
-75024.7
-259.59
-2606.64
-7343
-9641.51
-15094.6
-18354.7
-24382
-28934.1
-36179.4
-44539.1
-57909
-77392.3
-110938
-160140
-211857
-284302
-361299
-457960
-575751
-679130
-803512
-866406
-936890
-873836
-907088
-1.1082e+06
-1.11626e+06
-983008
-870673
-885798
-747483
-563542
-434738
-310370
-227521
-139575
-129093
-94137.1
-74492.6
-304.316
-2962.9
-7322.61
-10116.2
-14298.6
-19558.8
-23377.9
-29701.3
-35278.8
-43571.9
-54128.4
-69256.2
-93058.1
-129854
-182077
-238197
-313075
-392463
-494347
-613970
-737839
-866912
-953821
-1.03481e+06
-1.08779e+06
-1.08459e+06
-1.25823e+06
-1.1432e+06
-1.02907e+06
-887271
-909974
-789813
-559534
-434517
-306892
-223406
-138680
-127664
-93318.8
-73822.9
-444.158
-2666.22
-7370.61
-11006.4
-14793.5
-19013
-24291.5
-28733.3
-35795.9
-42059.2
-51851.7
-64485
-81861.4
-109589
-150048
-203862
-264562
-342701
-425240
-535463
-656536
-799086
-936207
-1.05734e+06
-1.14817e+06
-1.31004e+06
-1.25499e+06
-1.42452e+06
-1.16944e+06
-1.05723e+06
-905125
-934407
-832194
-554746
-431649
-303008
-220232
-137657
-126094
-92583.5
-72923
-421.981
-3603.86
-6968.1
-11585.9
-15833.3
-19926.2
-24012.4
-29485.5
-34583.4
-42030.6
-49648.2
-60847.5
-75806
-95657.4
-126496
-170915
-226805
-289995
-372677
-458741
-577216
-702719
-864773
-1.01046e+06
-1.18633e+06
-1.29017e+06
-1.51726e+06
-1.3832e+06
-1.56238e+06
-1.21173e+06
-1.07248e+06
-925726
-951969
-858266
-548098
-426888
-298350
-216925
-136230
-124224
-91632.1
-71782.5
-518.826
-3170.77
-7775.98
-11877
-16413.6
-20600.6
-25023.1
-28937.8
-35059.6
-40736.9
-48954
-57748.5
-70757.3
-87577
-110396
-144025
-191827
-250432
-315501
-402652
-490258
-616033
-752408
-933804
-1.09184e+06
-1.33031e+06
-1.47248e+06
-1.67102e+06
-1.45708e+06
-1.62633e+06
-1.25743e+06
-1.08325e+06
-944058
-960287
-860955
-539116
-420161
-293219
-212735
-134517
-122362
-90633.1
-70454.4
-727.373
-3663.48
-7423.3
-11467.1
-16520.6
-21038
-25526.5
-29913.2
-34404.9
-40702.8
-47207.4
-56361.9
-66731.9
-81254.9
-100002
-125618
-162280
-212531
-275230
-341326
-432176
-519875
-652772
-807146
-1.00582e+06
-1.17168e+06
-1.46277e+06
-1.70656e+06
-1.73542e+06
-1.48738e+06
-1.60672e+06
-1.28428e+06
-1.09011e+06
-952341
-954136
-844331
-528253
-411800
-287480
-207648
-132184
-120136
-89482.5
-69167.7
-837.247
-3592.83
-7557.63
-10835.1
-15818
-21197.1
-25394.1
-30119.2
-34993.4
-40215.8
-46788.1
-54108.3
-64404.7
-76260.3
-92238.9
-113135
-141098
-180761
-233632
-299452
-367581
-460858
-549895
-691799
-870447
-1.07638e+06
-1.24687e+06
-1.55874e+06
-1.97236e+06
-1.71136e+06
-1.48555e+06
-1.53389e+06
-1.27728e+06
-1.08587e+06
-948538
-934985
-816508
-515257
-402381
-280866
-202156
-129820
-117741
-88259.9
-67832
-806.074
-3342.42
-7173.94
-10422
-14927.1
-19933
-25357.8
-30044.3
-34766.4
-40361.6
-46105.5
-52965.1
-61553.2
-72857.7
-86364.4
-103423
-126753
-156894
-199426
-255046
-323635
-393794
-487986
-582645
-737744
-940333
-1.15007e+06
-1.32313e+06
-1.61662e+06
-2.20718e+06
-1.64268e+06
-1.4539e+06
-1.44024e+06
-1.24676e+06
-1.06766e+06
-933406
-906674
-783082
-501009
-391487
-273496
-196711
-127056
-115045
-86954.9
-66193.4
-616.556
-3009.61
-6863.34
-10239.1
-14199
-19569.9
-23893.9
-29895.2
-34766.1
-39660.5
-45773.8
-52176
-59279.5
-69387.1
-81526.9
-96696.6
-115149
-140604
-172711
-218324
-276567
-346806
-420108
-513510
-620333
-789016
-1.01562e+06
-1.235e+06
-1.40394e+06
-1.66977e+06
-2.33579e+06
-1.56361e+06
-1.39428e+06
-1.34353e+06
-1.19838e+06
-1.03737e+06
-909487
-873096
-747448
-485186
-380077
-265254
-191514
-124405
-112103
-85426.4
-64452.7
-617.174
-2745.21
-6285.31
-10454.3
-14136.6
-18162.1
-22871
-28456.3
-35062.4
-39577.7
-44714.1
-51341.2
-57974.9
-65888.8
-77180.6
-90498.4
-107365
-126982
-154466
-188433
-236826
-297839
-369272
-445333
-538807
-661586
-840412
-1.09335e+06
-1.32255e+06
-1.4921e+06
-1.74222e+06
-2.32483e+06
-1.47871e+06
-1.31744e+06
-1.24728e+06
-1.14092e+06
-999577
-880102
-836782
-710971
-468628
-367294
-256849
-186300
-121499
-109184
-83898.7
-62485.1
-514.993
-2913.47
-6000.89
-10094.1
-14353.2
-18117.4
-22352.7
-26340.1
-34285.3
-40263.2
-44389.6
-50237.7
-56039.6
-64646.7
-72344.5
-84938.6
-99702.3
-118329
-139264
-168350
-204088
-254909
-318136
-390594
-469693
-564729
-702832
-890854
-1.16667e+06
-1.40083e+06
-1.5824e+06
-1.82941e+06
-2.20744e+06
-1.38513e+06
-1.23094e+06
-1.15531e+06
-1.07957e+06
-957180
-847054
-798486
-674867
-450983
-354274
-248095
-181224
-118540
-106145
-82176.3
-60620.7
-623.73
-2993.09
-6157.23
-9684.47
-14174.9
-17939.2
-21389.5
-26896.1
-31162.3
-38271.3
-43746.2
-49603
-53461.1
-62440
-72316.9
-78378
-92868.8
-109246
-129672
-151681
-181898
-219064
-272529
-337447
-411146
-492473
-591715
-741652
-940587
-1.23406e+06
-1.46539e+06
-1.66835e+06
-1.89468e+06
-2.04025e+06
-1.28621e+06
-1.1435e+06
-1.06639e+06
-1.01412e+06
-912428
-812121
-759391
-638741
-432659
-340401
-239262
-175483
-115282
-103409
-80413.3
-58488.5
-639.712
-3097.85
-6573.39
-9715.89
-13627.8
-17974
-21487.8
-25089.2
-30377.6
-35579.3
-41308.9
-47175.2
-52802.4
-57452.4
-68760.6
-77574.9
-84939.2
-100944
-119280
-141499
-164290
-194895
-233460
-289299
-355449
-430803
-514280
-618727
-779539
-985103
-1.30068e+06
-1.54129e+06
-1.74983e+06
-1.91112e+06
-1.85992e+06
-1.18504e+06
-1.05739e+06
-984741
-952845
-866148
-775844
-719947
-602492
-413759
-326284
-230266
-169804
-112198
-100299
-78385.9
-56423.7
-450.147
-3011.57
-6507.11
-10117.9
-13269.6
-17311.1
-21519.7
-25036.8
-29255.1
-33545.8
-39403.2
-45131.6
-50877.6
-55892.7
-63404.5
-73697.7
-82259.8
-91731.4
-109454
-129498
-153281
-176839
-206974
-246748
-304847
-372758
-449412
-534522
-645721
-814386
-1.02524e+06
-1.37125e+06
-1.63e+06
-1.80997e+06
-1.87238e+06
-1.68111e+06
-1.08706e+06
-975275
-909487
-892605
-818983
-738807
-680275
-566645
-394341
-311933
-221244
-163756
-110139
-97097.9
-76275.7
-54346.4
-383.37
-2629.71
-6333.99
-9512.09
-13512
-16592.1
-20586.8
-24579.7
-28479.4
-32624.4
-37031.1
-43260.8
-48763.3
-54181
-60434.9
-68582.5
-78452.5
-87356.4
-99324.6
-118259
-140016
-164108
-187963
-218328
-259066
-319028
-388865
-466980
-553454
-671955
-843424
-1.06174e+06
-1.44152e+06
-1.70123e+06
-1.8211e+06
-1.78993e+06
-1.50641e+06
-994989
-897667
-839999
-832398
-771439
-701041
-640637
-531439
-374818
-297387
-212252
-157865
-108772
-93482.9
-74102.6
-52189.9
-411.894
-2647.98
-5713.28
-9462.39
-12851.6
-16541.1
-20318.5
-23567.4
-27909.5
-31464.2
-35886.9
-40585.1
-47077
-52115.4
-57840.2
-64965.5
-73048.4
-83273.8
-92472.8
-107452
-127252
-150443
-174342
-197566
-228943
-270266
-331867
-404297
-483025
-570823
-696414
-865950
-1.09275e+06
-1.49817e+06
-1.73248e+06
-1.77818e+06
-1.67798e+06
-1.34531e+06
-910057
-825188
-774582
-774557
-724447
-662748
-601593
-497490
-355255
-282946
-203110
-151956
-107226
-89977.9
-71965.3
-50109.4
-450.024
-2684.49
-5579.32
-8929.41
-12536.4
-16460.5
-19717.9
-23286.5
-26776
-30754.4
-34309.2
-39177.5
-44222.5
-50782.8
-55851.9
-61790.3
-69299.3
-77206
-88869
-98851.2
-115848
-136098
-161233
-181299
-205683
-239248
-280401
-344084
-418284
-497668
-586622
-717460
-881215
-1.11536e+06
-1.51825e+06
-1.71375e+06
-1.69338e+06
-1.55615e+06
-1.20371e+06
-830695
-757683
-714044
-719337
-676973
-624488
-563445
-465129
-336345
-268435
-193910
-146330
-104905
-86982.8
-69828.7
-47865.4
-336.547
-2789.35
-5462.05
-8436.05
-12190.6
-15891.9
-19565
-22537.3
-26303.4
-29588.4
-33552.3
-37242.5
-42761.6
-47869.6
-54432.7
-59369.2
-66968.7
-73434.2
-81558.6
-94891.2
-106084
-123936
-145145
-171057
-186806
-214099
-246835
-290755
-355040
-431328
-510410
-600670
-733686
-889928
-1.12573e+06
-1.48876e+06
-1.64981e+06
-1.58639e+06
-1.43141e+06
-1.08166e+06
-758276
-694391
-656649
-666753
-629724
-586704
-526412
-435076
-317997
-254132
-184744
-140594
-101781
-84528.3
-67595.4
-45782.3
-431.736
-2608.45
-5537.84
-8125.64
-11766.3
-15581.8
-19332.9
-22424
-25469.8
-28885.8
-32543.2
-36803.1
-40597.2
-46463.3
-51527.8
-57887.5
-63402
-72709.5
-77091.3
-87207.2
-100903
-113316
-131815
-154665
-175472
-192935
-223966
-254312
-299632
-365615
-442599
-521305
-612402
-744730
-892207
-1.12021e+06
-1.42574e+06
-1.55588e+06
-1.47237e+06
-1.31066e+06
-975588
-692163
-635412
-603469
-616845
-584209
-550030
-491149
-407197
-300409
-240146
-175749
-134727
-97840.3
-82424
-65247.3
-43622.3
-690.931
-2660.23
-5431.64
-8248.53
-11297.2
-15120.5
-19097.3
-22352.5
-25480.4
-28213.4
-31697.6
-35614.5
-40134.4
-44336.4
-50288.8
-54924.1
-61386.6
-67929.3
-76463.2
-81446.8
-92850.6
-108091
-119748
-139866
-161923
-179058
-199124
-231164
-262084
-309170
-374729
-452568
-530081
-621571
-749505
-889125
-1.10012e+06
-1.34926e+06
-1.45012e+06
-1.36154e+06
-1.19764e+06
-883194
-632314
-580768
-553234
-569637
-541704
-514665
-457945
-381440
-283654
-226492
-166988
-128841
-93476.5
-80079.2
-62745.9
-41522.4
-911.473
-2839.08
-5460.49
-8020.37
-11134.8
-14708.4
-18483.9
-21771.4
-24762.3
-27928.1
-31247.1
-35108.3
-38775
-43716.5
-48136
-54319
-58144.9
-65080.2
-72570
-79780.4
-87404
-98423.6
-112621
-128171
-144888
-166122
-183421
-206198
-238235
-269279
-317523
-383240
-460490
-536494
-627420
-749878
-880782
-1.06975e+06
-1.27215e+06
-1.3424e+06
-1.25541e+06
-1.09492e+06
-801966
-578391
-530624
-506935
-525402
-502314
-480276
-426696
-357664
-267544
-213283
-158363
-122753
-88956.9
-77526.2
-60172.3
-39350.1
-1137.54
-2961.2
-5424
-7987.17
-10951.7
-14325.8
-18039.4
-21462.1
-24353.6
-27369.9
-30588.3
-34725.3
-37853.3
-42338.8
-47106.9
-51889.5
-57150.9
-61713.4
-68709.8
-76588.6
-83752.2
-91847.6
-104678
-117063
-133609
-149750
-170553
-186113
-213596
-245413
-277212
-326266
-390190
-466708
-540871
-630208
-745414
-868224
-1.03291e+06
-1.19822e+06
-1.23923e+06
-1.15522e+06
-1.0014e+06
-730256
-529404
-484290
-463936
-484423
-465061
-448448
-397518
-335558
-251962
-200482
-150001
-117117
-86201.5
-75434.9
-57342.8
-37227.2
-1611.7
-3070.22
-5440.51
-7826.76
-10865.8
-13993.8
-17707.9
-21104.1
-24333.8
-27254.9
-30512.5
-33949.9
-37635.2
-40890.8
-45919.4
-50306.3
-55273.4
-59799.4
-65459.7
-72367.5
-80376.1
-87759.5
-95641.9
-109209
-123460
-137326
-153773
-174944
-190700
-220117
-252198
-283934
-333598
-396640
-470838
-542767
-629397
-738098
-850988
-990141
-1.12812e+06
-1.14526e+06
-1.06375e+06
-917934
-666437
-484892
-442194
-425119
-446584
-430351
-418875
-370276
-314737
-236864
-188104
-141793
-111192
-83373.9
-73130.2
-54576.5
-35176.6
-2034.32
-3566.65
-5402.02
-7655.15
-10656.2
-13705
-17394.6
-20902
-24184.7
-27253.5
-30426
-33890.6
-36809.4
-40442.6
-44350.6
-49769.6
-53190.6
-58284.3
-63664.2
-68789.5
-75932.9
-83569.7
-92555.4
-100289
-114369
-128214
-142271
-157613
-177998
-195901
-225211
-258775
-290601
-340231
-401942
-472885
-542600
-626046
-726777
-829623
-946941
-1.06187e+06
-1.05973e+06
-980409
-842136
-608429
-444406
-404157
-389430
-411609
-398056
-391238
-344849
-295031
-221994
-176105
-134128
-105565
-79295.3
-70674.5
-51757.9
-33215.4
-2442.57
-3839.4
-5592.83
-7380.11
-10388.1
-13330.9
-16963.6
-20704.9
-24040.2
-27170.1
-30346.9
-33659.3
-36577.4
-39599.7
-43603.7
-47713.2
-52499.6
-56210.8
-61739.1
-66909.1
-72332.3
-79301.8
-87678.5
-96068.3
-105537
-118640
-132066
-146507
-160827
-182526
-200340
-230030
-264276
-297351
-345943
-406722
-473250
-539900
-619323
-713152
-805781
-902277
-997506
-983100
-903739
-773676
-556289
-408366
-369836
-356843
-379351
-367993
-365292
-321073
-276301
-207463
-164429
-126656
-99543.1
-75290.6
-68563.5
-48937.1
-31404.5
-2755.11
-4353.43
-5631.11
-7304.08
-9955.62
-12989.9
-16648.9
-20231.1
-24005.7
-27077.8
-30153.5
-33328.4
-36441
-38872
-42505.1
-46692.3
-51073.4
-54974.6
-59567.5
-65187
-69722.8
-75615
-82981.3
-91836
-99240.9
-110958
-122223
-135917
-149494
-164676
-187332
-203983
-234845
-268530
-302473
-351668
-409898
-471695
-535438
-610781
-696635
-778377
-859329
-935624
-913279
-833497
-711369
-508706
-375489
-338465
-326639
-349445
-339930
-340826
-298847
-258263
-193550
-153253
-119663
-93995.3
-71325.4
-66152.9
-46042.2
-29568.4
-2885.87
-4903.14
-5819.24
-7031.96
-9634.81
-12534.5
-16407
-20032
-23590.3
-27034.4
-30065.4
-32893.6
-36171
-38655.2
-41661.2
-45548
-49652.1
-53791.2
-58229.5
-63059.7
-67897.4
-72767.8
-79023.8
-87075.7
-94504.3
-103178
-114586
-126016
-140057
-152493
-169476
-191518
-206841
-238387
-271972
-306796
-355306
-411753
-468798
-528885
-599600
-677853
-750510
-818559
-876826
-849398
-768925
-654983
-465763
-345513
-309765
-298805
-321928
-313752
-317722
-278093
-241060
-180289
-142483
-112804
-88410.1
-67744.8
-63338.1
-43127.5
-27818.9
-2788.29
-5194.34
-5945.68
-6835.19
-9210.4
-12076.7
-16040.3
-19775.8
-23541.3
-26647.4
-29838.6
-32789.6
-35574.6
-38460.4
-40978.9
-44523.5
-48488.8
-52376.7
-56649.7
-61429
-65850.7
-71337.4
-75531.8
-83004.1
-89978.3
-97763.4
-107288
-117677
-129633
-142984
-156029
-174082
-194308
-209724
-241745
-273786
-309907
-357662
-411808
-464070
-521055
-587038
-657410
-720817
-778970
-820272
-790614
-709765
-603445
-426206
-317606
-283423
-273168
-296312
-289452
-295951
-258520
-224653
-167808
-132382
-106318
-83160
-63872.5
-60578.9
-40130.3
-26046.4
-2684.95
-5146.16
-5805.39
-6709.15
-8745.18
-11460.2
-15499.7
-19603.8
-23428.5
-26778.8
-29665.6
-32507.1
-35249.9
-38104.1
-40666.1
-43650.6
-47417
-51121
-55107.9
-59481.7
-64386.6
-68548.6
-73543.3
-78960.8
-86292.8
-92681.7
-100880
-110633
-121038
-132530
-145872
-159485
-178325
-196706
-212476
-244479
-275570
-311632
-358404
-410213
-458436
-511466
-572633
-635205
-690989
-740799
-766815
-735972
-655228
-556388
-390125
-291944
-259342
-249466
-272619
-266755
-275167
-240165
-209122
-156101
-122595
-100107
-77933.5
-59472
-58263.5
-37119.9
-24478.9
-2111.69
-5382.18
-5646.68
-6043.83
-8344.89
-10742.9
-14755.2
-19062.5
-23395.8
-26904.1
-29838.8
-32274
-35046.5
-37725.2
-40456.2
-43098
-46316.7
-50151.7
-53754.2
-57702.7
-62213.7
-67188.5
-71938.5
-75710.2
-82510.8
-88458.5
-95711
-103972
-113606
-123892
-135181
-148757
-162453
-181684
-198498
-215574
-246609
-276642
-312563
-358006
-407098
-451248
-500959
-557079
-612162
-660604
-703082
-716440
-685064
-605285
-513104
-357187
-268110
-237186
-227800
-250292
-245319
-255378
-222901
-194499
-145198
-113282
-94276.6
-72788.3
-54733.9
-55757.4
-34036.4
-22979.6
-1241.48
-5037.23
-5511.1
-5453.03
-7372.11
-10090.8
-14044.4
-18407.4
-22887.2
-26920.3
-29969.1
-32463.6
-34701.7
-37441.5
-40314
-42722.1
-45496.7
-49013.9
-52706.7
-56229.2
-60595.1
-64997
-69921.1
-74036.9
-79136
-85026.2
-91163.2
-98381.3
-107053
-116266
-126779
-137683
-151275
-165088
-184279
-200130
-218178
-247996
-277273
-312697
-356047
-402365
-443574
-489075
-540290
-588181
-629840
-665872
-668851
-637706
-559198
-473657
-327097
-246174
-216961
-207705
-229493
-225151
-236507
-206762
-180714
-134994
-104269
-88770.9
-67740.8
-50377.3
-53166
-30987.4
-21694.9
-868.774
-3939.83
-5231.53
-4738.22
-6436.59
-9298.5
-13709.5
-17672.3
-22441.3
-26635.7
-30184.7
-32563.6
-34640.7
-37006.6
-39961
-42422
-44996
-48023.4
-51564.9
-55153.1
-58941.2
-63531.8
-67654.2
-72118.9
-76278.1
-82016.3
-87265.9
-93743.3
-100902
-109766
-118691
-129180
-140020
-153542
-167378
-185799
-202064
-220640
-248723
-277294
-311895
-353225
-396676
-434571
-476430
-522579
-563537
-598885
-629087
-624697
-593581
-517258
-437320
-299778
-225948
-198187
-189152
-209798
-206129
-218598
-191566
-167640
-125497
-95650.2
-83558.1
-62836
-46448.5
-50682.8
-27916
-20477.8
538.893
-3301.04
-5294.73
-4414.71
-5671.52
-9038.12
-12889.1
-17524.8
-21697.1
-26217.3
-30011.7
-32641.1
-34645.2
-36737.1
-39400.4
-42145.3
-44521.4
-47459.2
-50454.5
-54049.3
-57644
-61880.5
-66196.1
-69514.6
-74161
-79001.4
-84403.9
-89530.2
-96055.5
-103583
-112007
-120887
-131339
-141952
-155470
-169103
-187289
-203515
-222253
-248788
-276738
-310412
-349295
-389688
-425026
-462837
-504114
-538747
-568059
-593041
-583544
-552666
-478681
-404037
-274539
-207254
-180874
-171540
-191646
-188357
-201754
-177273
-155227
-116554
-87366.3
-78609.5
-58109.3
-42887.9
-47638.6
-24883.4
-19413.5
2376.21
-1836.19
-5505.55
-4407.24
-5809.75
-8992.8
-12763.7
-17016.4
-21578.1
-25431.2
-29569
-32521.5
-34697.7
-36442.5
-39053.7
-41520.1
-44110.4
-46953.1
-49875.2
-52831.1
-56411.6
-60312.1
-64839.9
-67983.5
-71762
-76497.3
-81504.1
-86707.6
-91514.9
-98371.1
-105765
-114179
-122766
-133253
-143775
-157213
-170680
-187873
-204741
-223276
-248338
-275517
-307802
-344830
-382212
-414293
-448741
-485279
-513789
-538179
-558187
-545603
-514882
-443440
-373155
-251527
-189867
-164572
-155122
-174468
-171723
-185790
-163766
-143416
-108110
-79295.8
-73926
-53478.9
-39400.5
-44014.1
-21898
-18396
3089.06
-266.661
-5867.82
-4569.35
-6287.01
-9547.5
-12805.1
-17105
-21227.9
-25416.3
-28952.2
-32144.1
-34565.4
-36454.8
-38558.3
-41159.6
-43603.9
-46445
-49347.8
-52263
-54980.1
-58983.2
-62915.1
-66876.5
-69903.8
-74030.7
-79057.5
-83919
-88612.9
-93261.1
-100739
-107747
-116045
-124520
-134995
-145267
-158546
-171885
-188517
-205357
-223700
-247320
-273730
-304636
-339257
-373634
-403097
-434047
-465978
-489265
-509318
-524844
-510707
-479822
-410827
-344697
-230139
-173710
-149461
-139709
-158669
-156042
-170736
-151050
-132169
-100160
-71286.7
-69917.1
-48944.2
-36258.3
-40468.1
-18984.2
-17458.2
3030.99
185.382
-5732.74
-4844.5
-6829.6
-10461.7
-13212.4
-17316.4
-21284.7
-24951.2
-28912.3
-31594.4
-34283.2
-36470.5
-38148.9
-40710.9
-43301.7
-46029.3
-49052.9
-51551.3
-54221.7
-57430.8
-61507.3
-65089.4
-68725.6
-72277.3
-76248.2
-81241.5
-86510.4
-90134.3
-95578.5
-102829
-109495
-117829
-126046
-136366
-146615
-159624
-172833
-188624
-205530
-223364
-245978
-271328
-300586
-333321
-365020
-391313
-419237
-446876
-465250
-482181
-493442
-478523
-447382
-380746
-318211
-210569
-158788
-135235
-125621
-143554
-141393
-156399
-139017
-121459
-92727.4
-63635.4
-66380.1
-44855.4
-33263.9
-36906.6
-16120.7
-16527.2
2652.31
3.87475
-5088.96
-4965.75
-7923.92
-11099.9
-13705.3
-17523.9
-21259.3
-24825.9
-28517.2
-31512.7
-33273
-36379.5
-38120.1
-40182.4
-42810.2
-45784.6
-48630.8
-51060.2
-53829
-56078.3
-60017
-63561.1
-66968.6
-70903.2
-74517.7
-78918.9
-83227.2
-88288.3
-91867.7
-97650.8
-104759
-111111
-119149
-127452
-137451
-147605
-160343
-173479
-188785
-205352
-222731
-244201
-268446
-296368
-326711
-355509
-379490
-404233
-427689
-442316
-456748
-464444
-448537
-417059
-352733
-293746
-192701
-144966
-122162
-112474
-129520
-127488
-142851
-127696
-111267
-85889.3
-56414.6
-63490.3
-42134.6
-30614.3
-33155.4
-13328.1
-15581.9
2145.71
-744.262
-4028.01
-5107.51
-8177.63
-11781.2
-14091.7
-17684.1
-21226
-24536.3
-28151.6
-31100.3
-32908.7
-35422.7
-38067.7
-39729.4
-42456.1
-45229.8
-48477.4
-50513
-53011.3
-55377.7
-58722.9
-62257.6
-65560.5
-69217.5
-73075.6
-76556.7
-80905.1
-85032.8
-89701.1
-93859.4
-99567.6
-106319
-112511
-120365
-128425
-138237
-148447
-160915
-173884
-188761
-204902
-221598
-242031
-265076
-291255
-319589
-346247
-367482
-389282
-409168
-420487
-433223
-437341
-420479
-388823
-326782
-271128
-176257
-132214
-109969
-100146
-116023
-114622
-130129
-116998
-101498
-79420.9
-49664.6
-60946.4
-39994.8
-27983.5
-29392.5
-10559
-14588.1
1545.88
-1253.75
-2848.75
-5003.18
-8199.33
-12251.1
-14496.4
-17679.7
-21163.8
-24200.5
-27507.4
-30603.6
-32512.1
-34595.4
-38074.5
-39582.8
-41899.8
-44766
-47864.3
-50203.5
-52370.5
-54769.1
-57508.2
-61038.4
-64245.3
-67626.6
-71259.9
-74918.2
-78574.5
-82726.8
-86413.6
-91256.5
-95565.3
-101388
-107575
-113931
-121263
-129323
-138848
-149014
-161112
-174114
-188661
-204082
-220140
-239455
-261220
-286023
-312411
-336331
-355520
-374556
-390927
-400158
-410944
-411706
-394113
-362324
-302751
-250351
-161310
-120345
-98745.8
-88343.3
-103681
-102515
-118152
-106933
-92123.7
-73231.3
-43432.5
-58867.8
-37019.9
-25347.4
-25290.4
-7802.6
-13541.8
980.468
-1370.27
-2028.96
-4930.39
-9120.55
-12756.3
-14773.9
-17809.5
-21024.7
-23863
-26976.7
-29706.3
-32136.4
-33971.2
-36977.4
-39860.9
-41448.1
-44290.7
-47309
-49774.9
-51858.2
-54084.9
-56624.7
-59805.1
-63037.5
-66141.3
-69677.5
-73107.6
-76732
-80488.3
-84243.1
-88035.7
-92782.4
-97083.7
-102851
-108662
-115001
-122121
-129953
-139262
-149383
-161267
-174032
-188031
-202814
-218105
-236415
-257023
-280080
-304445
-326626
-343530
-359920
-373430
-380519
-389611
-387261
-369334
-337708
-280569
-231175
-147476
-109397
-88067.3
-77337
-92159.2
-91329
-106951
-97493.9
-83320.3
-67345.1
-37932
-56628.8
-33544.1
-22494.9
-21017.9
-5118.9
-12454.1
506.943
-1257.69
-1668.42
-5166.87
-10588.8
-12685.1
-15061.8
-17739.7
-21005.6
-23481.1
-26422.6
-29156.3
-31276.9
-33602.6
-36462
-38733.4
-41350
-43733.5
-46765
-49340.7
-51429.8
-53504.3
-55835.8
-58890.4
-61865.1
-64925.7
-68077.3
-71500.4
-74987.6
-78593.1
-82161.4
-85749.8
-89614.2
-94189.2
-98644.3
-103897
-109805
-115868
-122742
-130449
-139398
-149369
-160928
-173493
-187024
-201102
-215695
-233093
-252385
-273958
-296715
-316455
-331414
-345702
-356267
-361667
-369307
-364312
-345944
-314671
-260080
-213545
-134917
-99031.6
-78196.4
-67255.8
-81644.2
-80841.1
-96314.7
-88624
-75003.4
-61691.2
-34157.8
-54926.7
-30637.7
-19306.8
-16525.2
-2432.84
-11240.2
34.4637
-1162.67
-1470.17
-5462.29
-11636.4
-12751.3
-15344.2
-17688.1
-20836
-23180.5
-25889.7
-28485.5
-30855
-32877
-35771
-38166.5
-41150.4
-43341
-46228.1
-48941.5
-51014.9
-52997.4
-55233.8
-58035.3
-60824.2
-63840.3
-66691.6
-70018.3
-73383.3
-76855.6
-80294.3
-83313.1
-87275.5
-91159.9
-95559.6
-99992.3
-105096
-110623
-116542
-123121
-130670
-139342
-149021
-160395
-172619
-185581
-199031
-212934
-229263
-247538
-267519
-288082
-306133
-319367
-331542
-339626
-343778
-349656
-342460
-324064
-293236
-241071
-197124
-123079
-89422.6
-69140.8
-58149.1
-71902.8
-71120.4
-86396.3
-80344.2
-67316.7
-56266.8
-31018.9
-53495.9
-28036
-15797.8
-12014.2
270.513
-9838.39
-296.08
-1187.67
-1382.94
-5563.66
-11844.3
-13254.3
-15734.7
-17670.2
-20755.2
-22863.7
-25487.4
-27891.5
-30190.9
-32527.3
-34962.7
-37258.2
-40086.1
-43554.4
-45547.8
-48534.4
-50679.4
-52546.6
-54518.5
-57321.4
-59938
-62809.5
-65545.2
-68512.7
-71868.6
-75088.8
-78714.7
-81466.4
-84686
-88665.2
-92516.3
-96772.3
-101125
-105904
-111219
-116871
-123225
-130774
-139118
-148397
-159325
-171420
-183893
-196763
-209792
-225218
-242322
-260592
-279654
-295591
-307268
-317608
-323581
-326445
-330683
-322089
-303379
-273195
-223398
-181794
-112297
-80378.3
-60882.5
-49897.1
-62844.6
-62129.3
-77097.2
-72525
-60225.9
-51157.5
-28404.1
-52116.8
-24936.6
-12151.3
-8058.19
3144.14
-8023.09
-515.032
-1286.84
-1484.88
-5463.33
-11762.4
-13433.4
-15925.9
-17805.9
-20675.5
-22695.8
-25033.5
-27524.2
-29608.6
-31888.2
-34589
-36805
-39166.2
-42572.1
-45567.5
-47896.6
-50332.4
-52120.9
-53919.6
-56718.5
-59143.4
-61839.9
-64491.6
-67247.7
-70322.8
-73534.2
-76846.4
-79887.7
-82607.6
-86139.5
-89823.4
-93617.6
-97710.7
-101941
-106582
-111602
-116916
-123225
-130797
-138859
-147556
-158152
-169742
-181727
-194161
-206379
-220776
-236830
-253726
-270620
-284920
-295219
-303854
-307932
-309857
-312691
-302835
-284008
-254558
-206792
-167502
-102102
-71974.7
-53405
-42373.5
-54515.8