/*--------------------------------*- C++ -*----------------------------------*\
| =========                 |                                                 |
| \\      /  F ield         | OpenFOAM: The Open Source CFD Toolbox           |
|  \\    /   O peration     | Version:  2212                                  |
|   \\  /    A nd           | Website:  www.openfoam.com                      |
|    \\/     M anipulation  |                                                 |
\*---------------------------------------------------------------------------*/
FoamFile
{
    version     2.0;
    format      ascii;
    arch        "LSB;label=32;scalar=64";
    class       volScalarField;
    location    "0";
    object      k;
}
// * * * * * * * * * * * * * * * * * * * * * * * * * * * * * * * * * * * * * //

dimensions      [0 2 -2 0 0 0 0];

internalField   nonuniform List<scalar> 
165000
(
4.83211e-05
8.45967e-06
3.7817e-05
4.27282e-06
8.07974e-06
2.74271e-05
4.63941e-06
4.29128e-06
9.61707e-06
2.07874e-05
5.72532e-06
4.77022e-06
4.47808e-06
1.43034e-05
1.55627e-05
5.63765e-06
5.8659e-06
4.82707e-06
4.71023e-06
1.24308e-05
1.19418e-05
5.2638e-06
5.76904e-06
6.05518e-06
4.94145e-06
4.79679e-06
1.0002e-05
9.64328e-06
4.74101e-06
5.3607e-06
5.98835e-06
6.32932e-06
5.05905e-06
5.0877e-06
9.03793e-06
8.96208e-06
4.23571e-06
4.83933e-06
5.61411e-06
6.27064e-06
6.58274e-06
5.31209e-06
5.55604e-06
9.39791e-06
8.91451e-06
3.74105e-06
4.30823e-06
5.09612e-06
5.88665e-06
6.55111e-06
6.92968e-06
5.60572e-06
6.23756e-06
1.05347e-05
9.59442e-06
3.30516e-06
3.79377e-06
4.54826e-06
5.27908e-06
6.17605e-06
6.91551e-06
7.25401e-06
6.0411e-06
6.97786e-06
1.25207e-05
1.16531e-05
2.96391e-06
3.37193e-06
4.02877e-06
4.69099e-06
5.47151e-06
6.48034e-06
7.26206e-06
7.6617e-06
6.47261e-06
7.90442e-06
1.54646e-05
1.26224e-05
2.68515e-06
3.03956e-06
3.62352e-06
4.14971e-06
4.79243e-06
5.58605e-06
6.75358e-06
7.66727e-06
8.06284e-06
6.98836e-06
8.90317e-06
1.94562e-05
3.31365e-05
2.46132e-06
2.78439e-06
3.28139e-06
3.74344e-06
4.22881e-06
4.83701e-06
5.68961e-06
7.03279e-06
8.07384e-06
8.53868e-06
7.5026e-06
9.77129e-06
2.26177e-05
9.80483e-05
2.25791e-06
2.57192e-06
3.05298e-06
3.39748e-06
3.83083e-06
4.28078e-06
4.87225e-06
5.78824e-06
7.32428e-06
8.54343e-06
8.99203e-06
8.11968e-06
1.03251e-05
2.16792e-05
5.50384e-05
2.13952e-06
2.37171e-06
2.82059e-06
3.16373e-06
3.4796e-06
3.85488e-06
4.29722e-06
4.92903e-06
5.97358e-06
7.70273e-06
9.07949e-06
9.51912e-06
8.73684e-06
1.14431e-05
2.11033e-05
1.5566e-05
2.14928e-06
2.30131e-06
2.62609e-06
2.93463e-06
3.22294e-06
3.50096e-06
3.86352e-06
4.31334e-06
5.01638e-06
6.2635e-06
8.20178e-06
9.74918e-06
9.99964e-06
9.46459e-06
1.27879e-05
2.06152e-05
2.08165e-05
2.14973e-06
2.3166e-06
2.51561e-06
2.77138e-06
3.01904e-06
3.23192e-06
3.50214e-06
3.8623e-06
4.34077e-06
5.19759e-06
6.71304e-06
8.87467e-06
1.06025e-05
1.05531e-05
1.02107e-05
1.42429e-05
2.31145e-05
2.37706e-05
2.18979e-06
2.32074e-06
2.52959e-06
2.73428e-06
2.86826e-06
3.03196e-06
3.22759e-06
3.50845e-06
3.86802e-06
4.40714e-06
5.50548e-06
7.36868e-06
9.77633e-06
1.17162e-05
1.10853e-05
1.10583e-05
1.55997e-05
2.51465e-05
2.67291e-05
2.21895e-06
2.34756e-06
2.53007e-06
2.7317e-06
2.86847e-06
2.87418e-06
3.01725e-06
3.22843e-06
3.52062e-06
3.90032e-06
4.5669e-06
6.00623e-06
8.31824e-06
1.0962e-05
1.31097e-05
1.17569e-05
1.19233e-05
1.7029e-05
2.71615e-05
2.95694e-05
2.50632e-06
2.40175e-06
2.53259e-06
2.76539e-06
2.89381e-06
2.88009e-06
2.87075e-06
2.98222e-06
3.23435e-06
3.56764e-06
4.01557e-06
4.91532e-06
6.78706e-06
9.61115e-06
1.25096e-05
1.4789e-05
1.25341e-05
1.29101e-05
1.84044e-05
2.92487e-05
3.2343e-05
3.79583e-06
2.62876e-06
2.54994e-06
2.78375e-06
2.92485e-06
2.94307e-06
2.86946e-06
2.83572e-06
2.92821e-06
3.25934e-06
3.69661e-06
4.26586e-06
5.49347e-06
7.9418e-06
1.14299e-05
1.45215e-05
1.66824e-05
1.34525e-05
1.39332e-05
1.97898e-05
3.12317e-05
3.52359e-05
7.79145e-06
3.77773e-06
2.73453e-06
2.81765e-06
2.97091e-06
3.1122e-06
2.93467e-06
2.85882e-06
2.79947e-06
2.92545e-06
3.34057e-06
3.95207e-06
4.68931e-06
6.35028e-06
9.56678e-06
1.38657e-05
1.71622e-05
1.8776e-05
1.44552e-05
1.50915e-05
2.11005e-05
3.32454e-05
3.82316e-05
2.21558e-05
1.11891e-05
5.09186e-06
3.13923e-06
3.00005e-06
3.22721e-06
3.17873e-06
2.92763e-06
2.82858e-06
2.76109e-06
2.96808e-06
3.55181e-06
4.36318e-06
5.307e-06
7.57913e-06
1.18318e-05
1.71376e-05
2.04886e-05
2.12133e-05
1.56017e-05
1.63037e-05
2.24194e-05
3.52082e-05
4.13348e-05
6.04315e-05
4.03568e-05
2.09566e-05
7.95168e-06
3.75777e-06
3.32581e-06
3.356e-06
3.19703e-06
2.9157e-06
2.76535e-06
2.77259e-06
3.12632e-06
4.04192e-06
5.02375e-06
6.24585e-06
9.32217e-06
1.49304e-05
2.13897e-05
2.44972e-05
2.40154e-05
1.68812e-05
1.76528e-05
2.36723e-05
3.72009e-05
4.4655e-05
0.000120163
0.000103805
7.746e-05
3.90229e-05
1.33799e-05
4.76767e-06
3.51432e-06
3.38472e-06
3.16082e-06
2.85089e-06
2.73467e-06
2.84013e-06
3.52002e-06
4.82251e-06
5.86785e-06
7.54465e-06
1.17412e-05
1.89824e-05
2.65925e-05
2.94751e-05
2.7255e-05
1.83426e-05
1.90637e-05
2.49882e-05
3.91909e-05
4.80686e-05
0.000248071
0.000157768
0.000131233
0.000116136
6.95116e-05
2.1447e-05
6.05679e-06
3.70036e-06
3.38564e-06
3.15229e-06
2.80277e-06
2.77141e-06
3.05766e-06
4.1701e-06
5.76273e-06
6.86109e-06
9.3633e-06
1.50217e-05
2.40341e-05
3.26859e-05
3.55227e-05
3.09107e-05
1.99638e-05
2.06145e-05
2.62863e-05
4.12237e-05
5.17078e-05
0.000405217
0.00028246
0.000173396
0.00013321
0.000124652
8.90173e-05
3.20356e-05
7.97089e-06
3.82254e-06
3.35973e-06
3.09585e-06
2.79297e-06
2.97408e-06
3.5193e-06
5.05357e-06
6.74686e-06
8.19311e-06
1.17902e-05
1.92904e-05
3.00965e-05
3.97925e-05
4.27429e-05
3.49876e-05
2.17598e-05
2.222e-05
2.77134e-05
4.32577e-05
5.54957e-05
0.000853398
0.000637162
0.000376352
0.000188062
0.000133633
0.000124265
9.29321e-05
4.57816e-05
1.04446e-05
4.02003e-06
3.29282e-06
3.0639e-06
2.95214e-06
3.32415e-06
4.19484e-06
5.82065e-06
7.30605e-06
9.77198e-06
1.47927e-05
2.46268e-05
3.72463e-05
4.79817e-05
5.16137e-05
3.93813e-05
2.36884e-05
2.39257e-05
2.91763e-05
4.54515e-05
5.94461e-05
0.00253538
0.00190454
0.00145327
0.000871885
0.000257443
0.000122222
0.000124783
9.95684e-05
5.58361e-05
1.40932e-05
4.20573e-06
3.22035e-06
3.03938e-06
3.30674e-06
4.00627e-06
5.01558e-06
6.20339e-06
8.25602e-06
1.22527e-05
1.86652e-05
3.11541e-05
4.54384e-05
5.71587e-05
6.21467e-05
4.41576e-05
2.57191e-05
2.5613e-05
3.07006e-05
4.76537e-05
6.36434e-05
0.00677795
0.00620409
0.0055063
0.00487213
0.00279341
0.000509467
0.000101277
0.000109551
9.54049e-05
6.20378e-05
1.83463e-05
4.53818e-06
3.18323e-06
3.27779e-06
3.97019e-06
4.99525e-06
5.54428e-06
6.72224e-06
1.04787e-05
1.53358e-05
2.34602e-05
3.88636e-05
5.45876e-05
6.72844e-05
7.4647e-05
4.85361e-05
2.77706e-05
2.73012e-05
3.21944e-05
5.00279e-05
6.7975e-05
0.0156084
0.0158343
0.0166699
0.0181979
0.0171457
0.00962434
0.00146265
9.01618e-05
9.3977e-05
9.34087e-05
6.75353e-05
2.46128e-05
5.04287e-06
3.51571e-06
3.97731e-06
5.05334e-06
5.58025e-06
5.60375e-06
7.93369e-06
1.36948e-05
1.88849e-05
2.93213e-05
4.77739e-05
6.4585e-05
7.82109e-05
8.8189e-05
4.95334e-05
2.97237e-05
2.88497e-05
3.36909e-05
5.24224e-05
7.26849e-05
0.0339252
0.0355768
0.0389428
0.0481561
0.0586879
0.0574479
0.0308718
0.00448996
8.3665e-05
8.0282e-05
8.28198e-05
6.80208e-05
3.0776e-05
6.4361e-06
4.53786e-06
5.58387e-06
6.46324e-06
5.66336e-06
5.8397e-06
1.07374e-05
1.76054e-05
2.31842e-05
3.63975e-05
5.7752e-05
7.53874e-05
8.99277e-05
0.00010176
4.92844e-05
3.14179e-05
3.02471e-05
3.50559e-05
5.50529e-05
7.755e-05
0.0754245
0.0764083
0.0817272
0.103805
0.13999
0.17687
0.171285
0.0880863
0.0125609
7.77449e-05
6.46194e-05
7.76481e-05
6.84156e-05
3.90711e-05
9.85033e-06
8.02043e-06
9.94872e-06
9.23204e-06
5.84648e-06
7.46759e-06
1.49314e-05
2.18941e-05
2.84137e-05
4.46874e-05
6.87152e-05
8.71256e-05
0.000102533
0.000111925
5.04061e-05
3.2676e-05
3.13441e-05
3.63282e-05
5.77342e-05
8.28989e-05
0.148482
0.172319
0.167937
0.209751
0.294206
0.40892
0.491743
0.439227
0.212121
0.0325647
6.869e-05
5.85075e-05
7.32521e-05
7.41875e-05
5.06845e-05
2.11219e-05
2.07329e-05
2.39332e-05
1.54616e-05
6.68406e-06
1.08208e-05
1.96646e-05
2.68271e-05
3.44183e-05
5.41658e-05
8.05518e-05
0.00010028
0.00011958
0.000121785
4.94043e-05
3.33205e-05
3.21863e-05
3.74663e-05
6.06916e-05
8.84139e-05
0.219948
0.298099
0.357833
0.426802
0.602624
0.908717
1.20383
1.22284
0.928072
0.422883
0.0709765
5.93721e-05
5.3641e-05
7.09925e-05
7.92699e-05
7.73868e-05
5.75583e-05
5.91095e-05
5.66938e-05
2.65248e-05
9.15976e-06
1.55221e-05
2.53299e-05
3.27277e-05
4.12162e-05
6.52536e-05
9.32616e-05
0.000113858
0.000136241
0.000123939
4.89472e-05
3.3766e-05
3.27335e-05
3.85106e-05
6.37242e-05
9.44149e-05
0.380184
0.48111
0.637105
0.875144
1.24116
2.09175
2.99964
3.38965
2.5985
1.52124
0.638806
0.115794
4.908e-05
4.96806e-05
7.01325e-05
9.10877e-05
0.000106818
0.000118192
0.000107075
8.7859e-05
4.09142e-05
1.29156e-05
2.13459e-05
3.10969e-05
3.86747e-05
4.93058e-05
7.8213e-05
0.000107095
0.000129547
0.000151901
0.00012276
5.0856e-05
3.397e-05
3.30475e-05
3.94503e-05
6.70556e-05
0.000100506
0.835101
0.947279
1.2219
1.80116
2.65666
4.43871
7.97691
9.5765
7.02498
3.81828
1.85672
0.815051
0.128126
3.98652e-05
4.72816e-05
6.87883e-05
9.28818e-05
0.000109662
0.000116455
0.000105809
9.13628e-05
5.67347e-05
1.85599e-05
2.81135e-05
3.80879e-05
4.44991e-05
5.83663e-05
9.30555e-05
0.000122634
0.000146523
0.000166911
0.000123338
5.11863e-05
3.39031e-05
3.32127e-05
4.02484e-05
7.04735e-05
0.000106974
1.75936
2.19835
2.72393
3.71695
5.77816
10.0032
17.5006
18.9888
12.5523
6.57511
3.84688
2.11679
0.940741
0.0285641
3.71672e-05
4.46138e-05
5.69671e-05
7.70396e-05
9.79078e-05
9.43511e-05
0.00010535
8.99649e-05
7.08315e-05
2.67791e-05
3.67684e-05
4.49887e-05
5.18811e-05
7.02035e-05
0.000109418
0.000139495
0.000164581
0.000179752
0.000119887
4.97374e-05
3.42599e-05
3.32795e-05
4.09382e-05
7.41686e-05
0.000113387
1.76727
2.25898
3.43272
5.16963
6.8963
11.115
14.0195
14.0247
9.95221
5.78382
4.23868
3.25145
2.49945
0.990742
8.40471e-05
3.62125e-05
4.25742e-05
5.16665e-05
6.24395e-05
7.5064e-05
7.72721e-05
9.21662e-05
8.85842e-05
8.41191e-05
3.75081e-05
4.65541e-05
5.143e-05
5.88788e-05
8.35242e-05
0.000126125
0.000157373
0.000183146
0.000185073
0.000118942
4.9416e-05
3.41159e-05
3.30136e-05
4.1631e-05
7.79359e-05
0.000120042
1.37722
1.69432
1.39294
2.19303
2.29901
4.01575
5.95917
7.22207
6.87674
4.90964
3.56097
3.60388
2.99808
2.69929
0.128108
3.7769e-05
3.67498e-05
4.19873e-05
4.84572e-05
5.93666e-05
7.46419e-05
7.62025e-05
8.17837e-05
8.89574e-05
9.51476e-05
5.51073e-05
5.78864e-05
5.86537e-05
6.86121e-05
9.85069e-05
0.000143154
0.000176019
0.000200803
0.000184074
0.000116834
5.23196e-05
3.38601e-05
3.27112e-05
4.24027e-05
8.18986e-05
0.00012652
0.930546
1.38993
1.38192
1.39106
1.50325
1.87066
3.07208
3.71816
4.0399
4.00517
3.29943
2.72511
2.63253
3.02106
1.79576
0.000817323
3.70045e-05
3.93563e-05
4.23044e-05
4.80874e-05
5.936e-05
7.39444e-05
7.66105e-05
8.15112e-05
8.75e-05
0.000108392
8.10044e-05
7.0048e-05
6.73509e-05
7.93592e-05
0.000114588
0.000161182
0.000194141
0.000213884
0.000181475
0.000120213
5.2304e-05
3.38473e-05
3.2263e-05
4.33314e-05
8.5871e-05
0.000133156
0.605447
0.909489
1.12551
1.00456
1.00274
0.751077
1.66089
2.62086
3.15912
3.14901
2.92804
2.38338
2.11245
2.11083
3.43885
0.248389
4.49082e-05
4.2119e-05
4.22481e-05
4.49034e-05
5.06218e-05
6.21914e-05
7.4713e-05
7.65451e-05
7.90223e-05
8.8765e-05
0.000119735
0.000111987
8.6815e-05
7.84735e-05
9.31006e-05
0.000131661
0.000179672
0.000211053
0.000219763
0.000181149
0.000113072
5.20662e-05
3.36189e-05
3.16205e-05
4.39128e-05
8.9838e-05
0.000139574
0.307647
0.564321
0.636177
0.578853
0.513263
0.287429
0.319397
1.00048
2.0799
2.66079
2.26568
2.23853
1.95067
1.85239
2.70431
2.98128
0.000858168
3.96844e-05
4.68736e-05
4.5334e-05
4.85867e-05
5.30998e-05
6.6879e-05
7.44969e-05
8.06632e-05
8.04264e-05
9.0108e-05
0.000144432
0.000155153
0.000104474
9.25243e-05
0.00011126
0.000149444
0.000198328
0.000223418
0.000222098
0.000184049
0.000120789
5.44793e-05
3.30409e-05
3.07897e-05
4.50927e-05
9.37386e-05
0.000146135
0.146723
0.271218
0.236188
0.306967
0.327281
0.271213
0.176587
0.155322
0.367459
1.18262
1.71081
1.63167
1.77644
1.75151
2.17525
4.65215
0.0890951
4.15048e-05
4.33236e-05
5.1844e-05
5.0117e-05
5.24271e-05
5.91271e-05
6.97523e-05
7.58343e-05
8.12582e-05
8.20671e-05
8.93947e-05
0.000155211
0.000184299
0.000129004
0.000109675
0.000126137
0.000166238
0.000214786
0.000233403
0.000220366
0.000176974
0.000118573
5.54661e-05
3.25644e-05
2.99913e-05
4.67369e-05
9.76794e-05
0.000152466
0.193313
0.0458894
0.0680195
0.0877769
0.0922148
0.201363
0.168595
0.150224
0.186965
0.305824
0.62432
1.16841
1.28695
1.51884
2.18499
5.04222
1.32158
0.000179651
4.02671e-05
4.71745e-05
5.79894e-05
5.46574e-05
5.82427e-05
6.43922e-05
7.35166e-05
7.65572e-05
8.19866e-05
8.56821e-05
9.58086e-05
0.000165309
0.000230914
0.000163074
0.000126596
0.000150286
0.000183817
0.00022726
0.000239407
0.000217061
0.000181598
0.000116601
5.48992e-05
3.24184e-05
2.91285e-05
4.76393e-05
0.000101671
0.000158983
0.201873
0.0204775
0.0496394
0.0427872
0.0495629
0.0530524
0.0981493
0.149559
0.207608
0.325103
0.519725
0.813319
1.16372
1.41752
2.4449
4.84455
2.92276
0.00278429
3.96421e-05
4.20175e-05
5.17151e-05
6.36887e-05
6.03341e-05
6.42362e-05
7.00045e-05
7.62106e-05
7.71504e-05
8.53992e-05
9.27094e-05
9.78858e-05
0.000171602
0.000279215
0.000185232
0.000152716
0.000168621
0.000197812
0.000237615
0.000240067
0.000216361
0.000177487
0.000117454
5.45774e-05
3.12134e-05
2.82061e-05
4.74302e-05
0.000105659
0.000165271
0.20798
0.0152556
0.0172463
0.0157133
0.0469784
0.04325
0.0644172
0.134926
0.246695
0.376432
0.602325
0.934663
1.33445
1.6901
2.35665
4.87365
3.6919
0.144075
0.000133989
3.63745e-05
4.40826e-05
5.70566e-05
6.99002e-05
6.54357e-05
7.08259e-05
7.41744e-05
7.67679e-05
7.92572e-05
9.10809e-05
9.55525e-05
0.000106679
0.000214934
0.000359879
0.000249874
0.000176307
0.000182988
0.000215215
0.000242716
0.000240036
0.000217527
0.000179901
0.000117686
5.47502e-05
3.08155e-05
2.71555e-05
4.91839e-05
0.00010962
0.000171823
0.125325
0.0423758
0.00777802
0.00836841
0.0198383
0.0365226
0.0556965
0.121454
0.301032
0.498708
0.803888
1.20952
1.73062
2.35789
3.70827
5.21595
4.499
0.816488
0.000287811
3.75245e-05
3.68311e-05
4.61897e-05
6.31601e-05
7.39786e-05
7.13082e-05
7.69609e-05
7.51911e-05
7.79919e-05
8.37087e-05
9.40515e-05
0.000102379
0.000116343
0.000237808
0.000401987
0.000331251
0.000206627
0.00019552
0.00022403
0.000245498
0.000241097
0.000210852
0.0001729
0.000115178
5.39336e-05
3.00641e-05
2.60902e-05
5.12846e-05
0.000113594
0.000178161
0.00941105
0.0833359
0.00544742
0.00697186
0.00864517
0.0249322
0.0452645
0.111164
0.25843
0.591258
1.01799
1.67549
2.3934
3.26915
5.61926
6.28922
4.52548
1.89963
0.00241397
5.5601e-05
3.74552e-05
3.8869e-05
4.90006e-05
6.86367e-05
7.74807e-05
7.73911e-05
7.88406e-05
7.67409e-05
8.18251e-05
8.78937e-05
0.000100638
0.000109904
0.000124622
0.000255279
0.000549018
0.000391096
0.000231656
0.000210185
0.000230995
0.000246221
0.000239693
0.000214546
0.000176435
0.000115982
5.37097e-05
2.89102e-05
2.49339e-05
5.24727e-05
0.000117489
0.000184864
0.000457952
0.0112043
0.00693778
0.00408765
0.00591329
0.0146556
0.0344971
0.0917087
0.232866
0.672442
1.15181
2.05104
3.21242
4.45869
7.92403
8.32488
4.45563
2.22261
0.167557
6.72476e-05
4.37579e-05
3.95013e-05
4.13699e-05
5.15747e-05
7.11776e-05
8.19249e-05
8.08415e-05
7.9106e-05
8.12453e-05
8.54813e-05
9.73352e-05
0.000107737
0.000116442
0.000127551
0.000245072
0.000616216
0.000480102
0.000253137
0.000226691
0.000236015
0.000245552
0.000240563
0.000210956
0.000173461
0.000119078
5.39082e-05
2.80413e-05
2.37741e-05
5.22111e-05
0.000121292
0.000191355
4.8788e-05
0.000590332
0.00911172
0.0020856
0.00302026
0.00909963
0.0274223
0.0718838
0.18636
0.518327
1.2332
2.3441
3.89668
5.81037
10.6859
11.8936
4.35903
2.48629
0.190898
0.00202373
5.54354e-05
5.20815e-05
4.26787e-05
4.50523e-05
5.26913e-05
7.42074e-05
8.48412e-05
8.05097e-05
8.16348e-05
8.54288e-05
9.03992e-05
0.000105716
0.00011474
0.000119614
0.000126969
0.000233215
0.000755601
0.000631053
0.00027173
0.000237606
0.000237646
0.000244723
0.000238344
0.000212576
0.000168408
0.00011263
5.20032e-05
2.68144e-05
2.26968e-05
5.504e-05
0.000124796
0.000198283
3.40599e-05
8.24031e-05
0.000632339
0.00110483
0.00173566
0.00457981
0.0164525
0.0570351
0.145934
0.412174
1.319
2.66341
4.49989
6.90546
13.9427
18.4828
3.86528
2.1818
0.223221
0.00234765
4.91763e-05
5.5726e-05
5.92832e-05
4.69301e-05
4.8789e-05
5.48595e-05
7.6352e-05
8.33775e-05
8.28246e-05
8.55008e-05
8.95019e-05
9.65827e-05
0.000113408
0.000118304
0.0001207
0.000128404
0.000223511
0.000823846
0.000781992
0.000287309
0.00024952
0.00024293
0.00024567
0.000237279
0.000208066
0.000164985
0.000109688
5.1239e-05
2.51925e-05
2.19008e-05
5.72786e-05
0.000128166
0.000204989
9.02977e-05
2.34211e-05
0.000107303
0.000515807
0.00101271
0.0022325
0.00990575
0.0327248
0.123398
0.32147
0.880437
2.59511
4.98364
7.84836
14.2581
20.8793
5.05674
2.13843
0.256905
0.011982
0.000122333
4.39171e-05
5.74875e-05
5.99352e-05
5.29166e-05
5.11345e-05
5.85414e-05
7.64551e-05
8.34222e-05
8.88318e-05
8.90267e-05
9.35951e-05
0.000103602
0.000117011
0.000118192
0.000125144
0.000132372
0.000214347
0.000830444
0.000997054
0.000318852
0.000259294
0.000245452
0.000243089
0.000235802
0.000203392
0.000160507
0.000104344
5.32702e-05
2.45628e-05
2.13539e-05
5.58256e-05
0.000130931
0.000212161
0.000412666
1.99528e-05
3.5014e-05
0.000122605
0.000570068
0.00100237
0.00462482
0.0202895
0.0782847
0.272434
0.741341
2.27229
5.25608
8.49888
15.0185
24.7209
6.22361
2.42725
0.503534
0.0141234
0.000125788
4.24815e-05
4.02682e-05
4.98792e-05
6.22713e-05
5.56718e-05
5.50599e-05
6.12439e-05
7.63768e-05
8.31712e-05
9.1173e-05
9.26644e-05
9.95119e-05
0.000112204
0.000117303
0.000123818
0.000138585
0.000145899
0.000209574
0.000899102
0.00115541
0.000391354
0.000276542
0.000249338
0.000237372
0.000221809
0.000189115
0.000138291
8.56122e-05
5.09421e-05
2.24722e-05
2.10043e-05
5.85696e-05
0.000133511
0.000219112
0.00204676
2.16285e-05
2.28249e-05
4.56288e-05
0.000160805
0.0004901
0.00239407
0.0105485
0.0463807
0.190019
0.634343
1.73292
4.40765
8.81834
15.8982
24.5974
9.58583
2.41694
0.906058
0.014763
0.000150995
4.9528e-05
3.99668e-05
3.65228e-05
4.36816e-05
5.87793e-05
5.84658e-05
5.86969e-05
6.30224e-05
7.91167e-05
8.70497e-05
9.25023e-05
9.77732e-05
0.000104923
0.000115448
0.000116656
0.000129126
0.000157996
0.000176715
0.000251042
0.000890949
0.00128212
0.000469196
0.00029104
0.000249517
0.000221913
0.000198779
0.000162409
0.000110665
6.8204e-05
4.48999e-05
2.04822e-05
2.08021e-05
5.38477e-05
0.000135092
0.000226524
0.0100656
3.01875e-05
2.23714e-05
2.78312e-05
6.23596e-05
0.000268065
0.00103316
0.00515312
0.0250941
0.123416
0.481377
1.48616
4.05615
8.96081
18.0096
24.9793
10.7157
3.01373
1.35767
0.101388
0.000360835
9.36255e-05
5.18705e-05
3.87563e-05
3.58639e-05
4.04696e-05
5.71662e-05
6.01907e-05
6.14602e-05
6.54942e-05
8.17599e-05
9.14055e-05
9.72211e-05
0.000102669
0.000109878
0.000113345
0.000119339
0.000129026
0.000178778
0.000242491
0.000295302
0.000917154
0.00148628
0.000626321
0.000310032
0.00024653
0.000198877
0.000168194
0.000137296
8.88598e-05
5.44225e-05
3.25717e-05
1.82426e-05
2.03324e-05
5.19945e-05
0.000136539
0.000233713
0.0482242
6.21445e-05
2.74118e-05
2.57018e-05
3.65168e-05
9.58343e-05
0.000455574
0.00236403
0.0150018
0.067061
0.337111
1.23114
3.35153
7.7608
15.8612
27.1657
11.7114
3.41388
2.09844
0.129227
0.00680862
0.000436267
0.000171761
5.00508e-05
3.7293e-05
3.49494e-05
3.93928e-05
5.65693e-05
6.27816e-05
6.1941e-05
7.09625e-05
8.31334e-05
9.65098e-05
0.000101811
0.000106669
0.000111616
0.000109759
0.000121392
0.000131459
0.000177586
0.000253394
0.000293623
0.000866538
0.00167989
0.00083289
0.000330142
0.000239512
0.000170231
0.00014585
0.000124892
7.94086e-05
4.98295e-05
2.59415e-05
1.63099e-05
2.01404e-05
4.73915e-05
0.000137358
0.000241349
0.225273
0.000193341
4.47411e-05
2.70044e-05
3.11452e-05
5.26445e-05
0.000184943
0.00113327
0.00669646
0.043846
0.196814
0.926055
3.01211
7.35547
14.6567
25.7018
12.6132
3.934
2.4931
0.520167
0.0111595
0.00195315
0.00136321
0.000251975
5.1362e-05
3.613e-05
3.49546e-05
3.922e-05
5.67841e-05
6.14114e-05
6.66585e-05
7.4742e-05
8.65035e-05
0.00010072
0.000105992
0.000107778
0.00010697
0.000103748
0.000119899
0.000135548
0.000162932
0.000224711
0.000274314
0.000798523
0.00164683
0.000922771
0.000352779
0.000225049
0.000145334
0.000137203
0.000111487
6.95538e-05
4.27973e-05
2.53946e-05
1.60072e-05
1.97449e-05
4.52481e-05
0.00013258
0.000248773
1.02478
0.000728256
0.000103127
3.57022e-05
3.13981e-05
4.01912e-05
8.95388e-05
0.000457295
0.00340593
0.02176
0.133754
0.618092
2.4708
6.53392
13.649
24.7601
13.7718
3.90454
2.82819
1.14352
0.0212279
0.0058488
0.00694857
0.00342645
0.000249847
4.85176e-05
3.62283e-05
3.54547e-05
3.97585e-05
5.75361e-05
6.5424e-05
7.08399e-05
7.68551e-05
9.28404e-05
0.000105313
0.000107475
0.000102258
9.87088e-05
0.00010086
0.000120122
0.000129989
0.000140586
0.000168599
0.000213713
0.000566488
0.00148935
0.00109417
0.000387161
0.000211891
0.000135933
0.000121522
0.000104296
6.50015e-05
4.1719e-05
2.14945e-05
1.567e-05
1.99648e-05
4.16582e-05
0.000125435
0.000256634
4.51901
0.00286609
0.000315496
6.37871e-05
3.52447e-05
3.87025e-05
5.74602e-05
0.000203075
0.0014767
0.0113757
0.0791917
0.426163
1.87159
6.11047
12.5726
23.5295
11.7905
3.98746
2.96319
1.74655
0.109226
0.0133026
0.0217825
0.0213447
0.0043609
0.000266807
3.8597e-05
3.60907e-05
3.60252e-05
4.11596e-05
6.14952e-05
6.96766e-05
7.33437e-05
8.06039e-05
9.80222e-05
0.0001073
0.000101969
9.30919e-05
9.46187e-05
0.000100425
0.000112269
0.000123805
0.000127208
0.000136586
0.000170375
0.000397468
0.00124435
0.00120039
0.000413688
0.000194714
0.000121498
0.000118145
9.91071e-05
6.1033e-05
4.19456e-05
2.04602e-05
1.54439e-05
1.90363e-05
4.00379e-05
0.000122314
0.000264321
19.0683
0.0112922
0.00112177
0.00015756
5.43031e-05
4.01157e-05
5.06797e-05
0.000104379
0.000657314
0.0056011
0.041285
0.286708
1.39034
5.13515
11.8151
19.7236
13.3219
4.21064
3.07798
2.18809
0.236141
0.025676
0.0493019
0.0753139
0.0485175
0.00427941
0.000159235
3.5802e-05
3.74462e-05
3.81537e-05
4.66641e-05
6.49259e-05
7.2154e-05
7.58419e-05
8.7207e-05
0.000100678
0.000104174
9.18813e-05
8.99345e-05
9.25151e-05
0.0001033
0.00010525
0.000116802
0.00011633
0.000124146
0.000149758
0.000294263
0.000975444
0.00116256
0.000450137
0.00021157
0.000119225
0.000111956
9.39033e-05
5.92335e-05
3.93145e-05
1.93435e-05
1.51574e-05
1.84526e-05
3.78706e-05
0.000120155
0.00027243
74.4408
0.0444329
0.00412553
0.000506937
0.000104249
5.2463e-05
5.11472e-05
7.461e-05
0.000284337
0.00278224
0.0234418
0.167633
1.01504
4.31714
11.5575
16.2659
14.523
4.59595
3.19649
2.53176
0.500666
0.0337018
0.0748413
0.150618
0.183127
0.0565689
0.0035826
4.81853e-05
3.6243e-05
3.88466e-05
4.25549e-05
5.31688e-05
6.89069e-05
7.41331e-05
8.00902e-05
9.25264e-05
0.000101224
9.57814e-05
8.63433e-05
8.93945e-05
9.11164e-05
9.94248e-05
0.000102313
0.000109965
0.00011537
0.000122805
0.000143573
0.000233441
0.00074833
0.00110736
0.00052744
0.000227078
0.000115313
0.000103314
8.85242e-05
5.45971e-05
3.69448e-05
1.90675e-05
1.51855e-05
1.8738e-05
3.68318e-05
0.000117615
0.000280447
252.722
0.176558
0.0145537
0.00178845
0.000262719
8.40713e-05
5.43658e-05
6.92389e-05
0.000151887
0.00113619
0.012785
0.101936
0.685442
3.45147
10.9051
15.5961
15.3249
4.78024
3.49254
2.75183
0.800038
0.0518874
0.0816352
0.185726
0.233927
0.207229
0.0479429
0.000490088
4.46671e-05
3.78829e-05
4.13609e-05
4.92985e-05
5.92576e-05
7.16624e-05
7.75429e-05
8.49771e-05
9.54696e-05
9.68341e-05
8.77219e-05
8.32257e-05
8.90868e-05
8.7491e-05
9.75686e-05
9.94499e-05
0.000105804
0.000115597
0.000125281
0.000146363
0.000209941
0.000550266
0.00100246
0.000604339
0.0002723
0.000110765
9.94232e-05
8.22607e-05
5.48413e-05
3.76649e-05
1.87969e-05
1.50847e-05
1.88267e-05
3.53611e-05
0.000114793
0.000288865
637.968
0.712046
0.0478098
0.00633431
0.000813799
0.00016044
7.78163e-05
6.76987e-05
0.000107507
0.000530183
0.00557535
0.0621766
0.450887
2.6385
10.1228
15.3351
15.4195
4.9265
3.629
2.82935
1.0018
0.0812756
0.091305
0.197793
0.257241
0.244302
0.180721
0.00624569
7.67213e-05
4.57403e-05
4.12125e-05
4.81023e-05
5.75285e-05
6.56396e-05
7.51487e-05
8.24035e-05
8.92048e-05
9.66417e-05
8.94092e-05
8.23687e-05
8.19771e-05
8.6417e-05
8.42854e-05
9.59399e-05
9.77817e-05
0.000103017
0.000120835
0.000133796
0.000153862
0.000203701
0.000422567
0.000896055
0.000652712
0.000299855
0.000111211
8.89078e-05
7.39389e-05
5.61309e-05
3.72007e-05
1.92949e-05
1.51809e-05
1.79927e-05
3.45375e-05
0.000112514
0.000297197
925.537
2.92281
0.143846
0.0214076
0.00277068
0.000385283
0.000121322
7.7191e-05
9.98551e-05
0.000260759
0.00274682
0.0296675
0.302408
1.92988
8.89634
15.1802
13.3852
4.82563
3.75664
2.80283
1.17556
0.0918065
0.106852
0.221767
0.315195
0.280083
0.242391
0.096696
0.000210287
7.41998e-05
4.52626e-05
4.77107e-05
5.68724e-05
6.54295e-05
7.1666e-05
8.07889e-05
8.7038e-05
9.31493e-05
9.17962e-05
8.19899e-05
7.96668e-05
8.13173e-05
8.12896e-05
8.35962e-05
9.40911e-05
9.79725e-05
0.000100317
0.000119706
0.000138943
0.000163858
0.000202433
0.000350183
0.0007986
0.000718987
0.00035515
0.000108755
7.75611e-05
6.64096e-05
5.29091e-05
3.56688e-05
1.91902e-05
1.52361e-05
1.73953e-05
3.30597e-05
0.000110647
0.000305829
860.15
11.8524
0.394791
0.066791
0.00964325
0.00114439
0.000219456
0.000111875
9.62174e-05
0.000174557
0.00116536
0.0163576
0.163471
1.36127
7.28305
16.4366
12.1721
4.89567
3.9703
2.92466
1.24762
0.107399
0.104068
0.263816
0.472854
0.405473
0.312548
0.195911
0.00736355
8.62465e-05
5.68991e-05
4.72829e-05
5.6528e-05
6.5799e-05
7.18722e-05
7.74264e-05
8.63778e-05
9.13826e-05
9.60927e-05
8.34176e-05
7.84761e-05
7.82323e-05
8.06692e-05
7.65683e-05
8.88016e-05
9.30058e-05
9.39765e-05
9.58404e-05
0.000114003
0.000134847
0.000164109
0.000199851
0.000303724
0.000687939
0.00086547
0.000390355
9.99018e-05
7.16362e-05
5.92984e-05
5.14766e-05
3.52675e-05
2.02881e-05
1.53031e-05
1.69944e-05
3.19068e-05
0.000108843
0.000314306
511.308
45.3601
0.994724
0.188662
0.0328688
0.00367251
0.000496598
0.000164979
0.000109406
0.000153898
0.000574385
0.00709782
0.0974289
0.919549
5.38902
17.6076
13.4484
4.84097
4.15666
3.1264
1.45661
0.139467
0.118324
0.360426
0.684199
0.644205
0.430545
0.282152
0.0903807
0.000159912
6.81834e-05
5.75921e-05
5.67726e-05
6.69444e-05
7.14832e-05
7.73173e-05
8.52345e-05
9.18224e-05
9.61764e-05
9.03082e-05
7.72009e-05
7.68004e-05
7.67669e-05
7.56533e-05
7.4497e-05
9.14659e-05
8.67137e-05
8.89525e-05
8.96247e-05
9.78396e-05
0.000118392
0.000158283
0.000189674
0.000270106
0.000566479
0.000878499
0.000472914
9.94999e-05
6.79236e-05
5.52134e-05
4.88027e-05
3.45682e-05
2.08191e-05
1.53439e-05
1.64081e-05
3.01092e-05
0.000106964
0.00032291
238.237
135.044
2.30881
0.468399
0.103576
0.0118433
0.00135877
0.000261179
0.000152513
0.000142944
0.000341818
0.00344915
0.0470566
0.553162
4.33187
16.9377
18.5548
4.95282
4.30989
3.36061
1.71816
0.138806
0.0982442
0.329563
1.00789
0.950822
0.562863
0.313548
0.188955
0.00293216
0.000143474
6.86347e-05
5.97072e-05
6.77675e-05
7.31693e-05
7.68833e-05
8.53348e-05
9.21098e-05
9.60008e-05
9.8056e-05
7.88853e-05
7.44175e-05
7.54297e-05
7.37875e-05
7.09591e-05
7.59679e-05
8.60334e-05
7.92723e-05
8.21502e-05
8.13719e-05
8.72107e-05
0.0001023
0.000142345
0.000181219
0.000242679
0.000456627
0.000849331
0.000533205
0.000118544
6.17547e-05
5.32335e-05
4.84063e-05
3.29343e-05
2.201e-05
1.57749e-05
1.5811e-05
2.86031e-05
0.000105457
0.000331255
88.0119
172.943
4.76123
0.97264
0.28487
0.0368291
0.00403009
0.000504106
0.00020743
0.00016057
0.000244644
0.00155795
0.0250668
0.312412
2.94892
15.4858
22.9918
5.1813
4.34542
3.56394
1.88757
0.167605
0.0825539
0.456699
1.53427
1.54391
0.768417
0.367754
0.25898
0.0412513
0.00012139
7.43799e-05
6.86151e-05
6.72025e-05
7.76822e-05
7.7939e-05
8.59287e-05
9.2752e-05
9.77564e-05
9.93111e-05
8.86054e-05
7.43578e-05
7.20883e-05
7.3016e-05
6.99244e-05
6.85514e-05
7.96595e-05
7.82289e-05
7.31577e-05
7.43186e-05
7.64188e-05
8.30256e-05
9.53786e-05
0.000128929
0.000169457
0.000220023
0.000375198
0.000788871
0.00064143
0.00013641
6.02923e-05
5.22443e-05
4.60534e-05
3.27637e-05
2.40197e-05
1.61126e-05
1.56066e-05
2.66742e-05
0.000103842
0.000339632
26.3068
69.146
8.36578
1.57046
0.657124
0.106756
0.0120387
0.0011574
0.000282624
0.000199163
0.000231073
0.00079197
0.0114246
0.174666
1.91756
12.9682
25.2044
5.47728
4.3368
3.76863
2.11645
0.24372
0.0712288
0.470154
2.15896
2.49465
1.15327
0.396868
0.300331
0.125859
0.000762973
9.0592e-05
7.41655e-05
7.39642e-05
7.82392e-05
8.29471e-05
8.60092e-05
9.41931e-05
9.7949e-05
0.000101409
9.92485e-05
7.73106e-05
7.16982e-05
6.93942e-05
6.95102e-05
6.57469e-05
6.80026e-05
7.76617e-05
7.14948e-05
6.65159e-05
6.62649e-05
7.44763e-05
8.09755e-05
9.15633e-05
0.000121482
0.000159706
0.000204187
0.000318715
0.000702936
0.000699186
0.000182515
5.90584e-05
4.9947e-05
4.5036e-05
3.26466e-05
2.58922e-05
1.65029e-05
1.56342e-05
2.52148e-05
0.00010214
0.000347726
10.3603
16.9031
9.93273
1.73453
1.17886
0.278138
0.0345748
0.00299328
0.000412117
0.000256415
0.00021934
0.00051346
0.00533286
0.0959148
1.13782
10.0242
25.4652
6.87173
4.33224
3.87115
2.28494
0.361702
0.0645047
0.439559
2.85176
3.82958
1.87988
0.410557
0.348007
0.156299
0.00184384
0.000115869
8.69019e-05
7.62486e-05
8.56366e-05
8.30788e-05
8.99814e-05
9.45935e-05
0.000102298
0.000103858
0.000103729
8.60533e-05
7.2967e-05
6.83486e-05
6.74259e-05
6.53026e-05
6.27107e-05
7.01527e-05
7.19051e-05
6.32943e-05
6.16234e-05
6.32667e-05
6.66811e-05
7.25457e-05
8.57217e-05
0.000116788
0.000153992
0.000188607
0.000275087
0.000612908
0.000792244
0.0002302
5.83956e-05
4.93628e-05
4.34095e-05
3.23891e-05
2.7365e-05
1.70758e-05
1.52028e-05
2.49074e-05
0.000100107
0.000355841
7.54109
8.05049
5.02484
1.53063
1.43855
0.619724
0.0929545
0.00798295