/*--------------------------------*- C++ -*----------------------------------*\
| =========                 |                                                 |
| \\      /  F ield         | OpenFOAM: The Open Source CFD Toolbox           |
|  \\    /   O peration     | Version:  2212                                  |
|   \\  /    A nd           | Website:  www.openfoam.com                      |
|    \\/     M anipulation  |                                                 |
\*---------------------------------------------------------------------------*/
FoamFile
{
    version     2.0;
    format      ascii;
    arch        "LSB;label=32;scalar=64";
    class       volScalarField;
    location    "0";
    object      p;
}
// * * * * * * * * * * * * * * * * * * * * * * * * * * * * * * * * * * * * * //

dimensions      [0 2 -2 0 0 0 0];

internalField   nonuniform List<scalar> 
165000
(
-405.304
-31.0835
-802.644
-70.9438
-58.8527
-627.055
-31.5129
-209.231
-31.6339
-303.306
-50.6982
-76.271
-367.004
23.5979
-240.795
-165.008
-30.0601
-235.773
-469.605
64.4861
-242.016
-223.769
-227.175
-200.357
-414.253
-567.505
82.3918
-225.321
-260.292
-312.086
-381.457
-407.088
-604.044
-662.536
68.3274
-187.513
-223.95
-366.363
-386.678
-547.904
-623.486
-797.208
-768.482
27.0402
-147.145
-164.826
-248.74
-381.055
-471.71
-730.05
-850.962
-1001.9
-880.799
-19.5528
-111.622
-119.589
-111.116
-151.557
-408.832
-572.056
-916.95
-1079.75
-1212.33
-997.603
-33.6158
-85.8574
-83.828
-73.1387
103.39
-61.3263
-442.946
-684.885
-1114.38
-1312.66
-1433.99
-1109.78
-12.2308
-59.2903
16.2853
-55.129
164.134
150.194
-24.0931
-490.197
-818.118
-1316.93
-1546
-1661.21
-1212.74
7.4983
-29.4332
112.545
152.31
193.489
190.88
94.8615
-59.6202
-574.58
-957.254
-1528.61
-1778.61
-1897.11
-1310.75
-18.7365
-9.13158
213.136
379.363
472.086
415.714
67.295
42.2131
-13.132
-635.632
-1119.15
-1745.86
-2013.86
-2136.21
-1409.2
-92.562
7.07616
297.603
603.942
795.545
802.034
648.653
-126.397
14.2319
36.9368
-727.018
-1253.84
-1982.56
-2245.92
-2380.58
-1508.39
-188.705
24.8384
360.474
823.051
1121.19
1225
1131.68
843.008
-172.507
-139.85
-50.0301
-834.058
-1425.58
-2197.67
-2483.67
-2626.39
-1606.1
-289.636
40.997
401.903
986.443
1436.91
1653.73
1629.76
1430.83
1079.58
81.5481
-244.883
21.7991
-897.741
-1592.64
-2457.12
-2720.89
-2875.56
-1709.45
-411.246
49.6457
391.022
1090.31
1691.19
2044.76
2134.08
2013.62
1752.35
1333.87
423.524
17.8469
112.364
-916.543
-1761.37
-2678.97
-2969.93
-3120.22
-1826.01
-552.87
42.7786
371.298
1122.28
1855.06
2346.48
2594.62
2589.65
2390.74
2047.46
1605.48
771.423
226.047
121.373
-914.267
-1908.89
-2962.45
-3227.88
-3353.35
-1955.34
-712.929
13.003
343.157
1080.13
1929.82
2545.95
2958.2
3121.28
3018.07
2732.89
2367.77
1898.2
1093.07
414.327
204.43
-901.366
-2065.77
-3118.94
-3514.54
-3577.68
-2102.93
-886.862
-44.8367
307.254
1033.4
1883.56
2611.76
3201.29
3537.52
3588.45
3406.57
3090.67
2681.71
2216.95
1430.4
686.059
287.515
-879.919
-2193.82
-3156.22
-3821.12
-3795.17
-2267.78
-1075.45
-131.764
277.214
946.16
1833.56
2569.34
3290.94
3812.05
4050.34
4031.29
3800.42
3417.26
3026.37
2573.58
1803.74
982.972
444.633
-816.878
-2298.77
-3140.34
-4140.98
-4015.2
-2456.14
-1281.2
-247.637
274.816
828.519
1714.35
2469.04
3257.89
3918.69
4352.38
4533.49
4439.71
4140.61
3764.59
3391.68
2962.5
2210.57
1346.92
611.623
-731.816
-2354.11
-3312.97
-4470.27
-4240.89
-2668.44
-1505.29
-394.808
218.98
746.07
1552.86
2300.33
3157.62
3859.19
4486.99
4863.12
4967.3
4808.85
4507.58
4117.76
3795.21
3413.67
2659.09
1727.33
840.991
-634.592
-2450.03
-3623.76
-4808.37
-4479.02
-2909.25
-1750.28
-571.365
134.242
582.425
1431.28
2085.85
2967.17
3744.26
4443.6
5010.33
5303.67
5360.45
5179.91
4845.74
4491.39
4248.81
3907.93
3148.65
2164.25
1045.24
-601.693
-2622.85
-4009.16
-5156.11
-4728.62
-3180.02
-2016.04
-780.776
93.8772
371.796
1129.9
1937.42
2733.18
3530.47
4326.51
4970.99
5464.82
5720.7
5745.39
5517.8
5208.31
4902.79
4745.64
4465.49
3658.18
2585.73
1248.98
-581.085
-2846.04
-4392.77
-5512.8
-4994.31
-3483.29
-2305.19
-1020.17
-32.4423
223.021
798.467
1538.24
2558.23
3294.46
4115.94
4855.54
5448.93
5908.89
6101.32
6077.78
5872.14
5591.79
5358.3
5302.6
5052.83
4167.04
3006.01
1461.66
-590.755
-3036.94
-4758.37
-5876.58
-5273.38
-3819.76
-2616.81
-1293.32
-119.679
-129.945
482.573
1230.54
2053.12
3104.88
3901.7
4648.24
5342.83
5908.33
6287.83
6432.78
6425.65
6226.17
6007.28
5866.73
5894.53
5596.61
4661.64
3392.93
1673.38
-603.298
-3254.96
-5201.66
-6260
-5572.4
-4190.07
-2953.88
-1597.59
61.9549
-255.687
-98.3033
775.523
1784.57
2625.62
3712.61
4453.53
5149.29
5804.62
6295.69
6638.56
6766.98
6743.54
6605.9
6475.44
6428.09
6554.48
6159.62
5145.34
3760.82
1862.09
-671.283
-3486.26
-5646.46
-6668.32
-5891.59
-4593.77
-3315.65
-1936.03
-108.105
-217.715
-448.174
37.375
1126.69
2342.17
3262.26
4275.44
4978.86
5612.52
6192.14
6674.5
6965.43
7054.01
7076.39
7018.77
6999.53
7049.45
7087
6693.58
5579.61
4080.07
1995.96
-748.57
-3744.93
-6112.66
-7102.52
-6241.69
-5029.51
-3705.2
-2307.08
-24.9815
-538.536
-1233.58
-524.935
228.655
1443.19
2996.15
3907.78
4832.94
5439.25
6007.49
6575.4
6994.43
7240.1
7361.04
7420.81
7467.43
7580.6
7651.58
7502.14
7187.21
5982.74
4363.38
2082.39
-889.172
-4003.76
-6605.74
-7567.43
-6627.25
-5493.23
-4122.57
-2713.26
67.1216
-350.795
-1404.28
-2015.13
-689.507
372.849
1968.8
3636.54
4572.4
5314.03
5845.25
6380.27
6874.36
7284.29
7526.48
7639.66
7780.9
7978.25
8208.19
8018.49
8024.39
7652.92
6351.6
4588.08
2110.16
-1047.28
-4292.12
-7110.03
-8064.27
-7064.48
-5990.56
-4569.89
-3153.38
91.773
-168.6
-1110.08
-2304.88
-3279.06
-1206.25
746.228
2592.46
4346.1
5135.67
5743.16
6190.59
6662.54
7163.33
7555.37
7764.12
7936.47
8190.2
8540.96
8732.82
8487.79
8548.2
8046.51
6666.69
4763.23
2103.96
-1266.82
-4585.87
-7634.95
-8557.61
-7541.92
-6524.55
-5046.02
-3629.62
175.165
5.09189
-835.553
-2311.04
-3952.09
-4577.89
-1710.23
1289
3478.53
4959.84
5645.06
6076.16
6453.6
6923.62
7382.7
7765.36
8028.5
8249.41
8624.67
9114.63
9239.27
9107.87
8989.08
8431.96
6960.52
4881.57
2038.32
-1511.2
-4905.59
-8173.75
-9105.01
-8063.2
-7097.53
-5552.94
-4141.21
263.146
288.341
-347.606
-1991.69
-4630.99
-6450.88
-6220.11
-2152.47
2115.19
4336.82
5571.78
6009.29
6324.54
6674.6
7105.97
7567.77
7988.23
8263.97
8574.1
9065.14
9732.11
9727.17
9600.99
9389.01
8777.72
7199.27
4945.56
1938.69
-1814.53
-5242.22
-8741.8
-9690.37
-8619.14
-7708.71
-6089.63
-4690.36
351.343
553.685
232.121
-1150.39
-4120.78
-8112.23
-10390.3
-7513.86
-1554.93
2990.22
5149.84
5966.48
6282.45
6509.42
6819.28
7269.69
7734.45
8155.97
8514.56
8833.34
9557.16
10407.7
10273.8
10085.8
9753.12
9063.14
7398.59
4958.26
1776.54
-2152.05
-5612.68
-9342.82
-10323.5
-9216.72
-8359.56
-6658.44
-5275.79
453.214
774.768
670.632
-172.332
-2682.17
-7326.45
-12898.7
-13609.5
-6583.74
-35.5781
4036.3
5736.44
6287.34
6460.59
6611.2
6946.62
7386.28
7847.5
8359.79
8670.57
9101.95
10115
11030.8
10885.7
10501.7
10111.4
9339.86
7560.37
4920.25
1574.65
-2543.25
-6022.02
-9972.3
-11006
-9847.8
-9049.18
-7257.61
-5899.64
530.32
850.458
966.329
561.241
-1188.26
-5034.25
-11338.6
-15866.8
-11959.6
-3867
1833.51
4904.64
6223.54
6438.75
6500.71
6685.61
7018.68
7469.21
7987.54
8503.12
8858.61
9440.63
10707.4
11537.1
11419.6
10902.1
10400.8
9555.38
7670.77
4839.68
1328.46
-2977.75
-6468.46
-10639
-11728.3
-10518.5
-9778.87
-7889.89
-6560.04
526.264
793.405
1148.7
852.647
-95.9456
-2875.04
-7884.91
-13883.7
-13573.3
-6857.09
-827.635
3305.68
5707.14
6448.89
6450.75
6513.25
6724.1
7084.28
7558.12
8081.23
8653.75
9100.8
9844.76
11148
11988.1
11940
11272.2
10676.3
9760.28
7738.79
4705.55
1032.5
-3469.32
-6966.04
-11329.2
-12500.7
-11219.5
-10546.9
-8552.9
-7259.15
408.087
688.952
1095.61
918.247
438.72
-1455
-4967.52
-10201.9
-11666
-7239.09
-2384.37
1305.76
4446.91
6192.59
6471.16
6390.6
6500.77
6759.76
7131.72
7608.94
8191.5
8809.22
9346.65
10270.1
11477.3
12282.1
12394.3
11596.7
10913.6
9906.52
7757.25
4535.02
703.476
-4018.04
-7503.64
-12062.1
-13318.8
-11957.4
-11354.2
-9249.74
-7995.43
302.302
586.77
923.439
933.544
631.443
-528.865
-2888.89
-6494.61
-8482.27
-6196.6
-3199.3
63.8873
2981.36
5416.99
6354.51
6309.98
6330.46
6488.21
6785.07
7167.64
7681.82
8286.86
8992.8
9611.89
10644
11808
12546.2
12816.9
11885.9
11120.8
10014
7725.35
4314.43
341.115
-4624.95
-8105.48
-12824
-14187.7
-12723.2
-12199.1
-9978.53
-8769.98
235.949
473.412
822.496
883.648
684.512
-30.4267
-1355.51
-3690.33
-5794.5
-4974.8
-2970.17
-938.12
2064.94
4370.38
5925.5
6199.6
6161.14
6263.29
6497.13
6804.2
7203.88
7730.89
8401.72
9171.35
9872.88
10979.2
12074.3
12808.3
13170.7
12142.9
11310.8
10074.8
7655.59
4059.94
-67.3068
-5296.26
-8755.67
-13637.3
-15105
-13524.5
-13082.1
-10741.7
-9582.11
199.183
361.815
702.341
784.876
699.033
126.931
-727.915
-1979.37
-3517.69
-3926.72
-2671.67
-1234.83
1092.69
3504.97
5117.55
5939.32
5896.67
6037.68
6217.66
6474.23
6817.27
7227.65
7794.8
8532.68
9333.72
10126.8
11254.3
12253.7
12986.2
13431.3
12386.1
11436.7
10077.6
7531.05
3752.91
-499.269
-6010.62
-9473.44
-14498.7
-16072.5
-14359.6
-14001
-11538.2
-10432.7
182.021
272.137
568.14
687.415
661.842
272.858
-429.439
-1418.55
-2314.36
-2742.36
-2411.23
-1478.76
369.38
2556.81
4216.88
5330.43
5584.39
5735.73
5946.02
6157.35
6466.87
6818.48
7254.27
7856.87
8648.26
9515.24
10332.4
11470.6
12383.7
13124.1
13559.2
12656.8
11536.2
10030.5
7371.27
3414.53
-992.89
-6781.01
-10235.7
-15435.2
-17087.6
-15238.1
-14955.8
-12370.6
-11319.9
185.042
194.504
441.907
592.185
587.88
321.413
-133.438
-950.255
-1851.98
-2249.23
-2080.98
-1604.52
-342.152
1570.98
3336.3
4349.68
5128.78
5373.39
5565.53
5837.26
6108.5
6442.2
6807.84
7277.99
7912.9
8779.98
9635.41
10520.4
11605.3
12490.1
13229
13613.2
12907.6
11569.5
9906.54
7169.2
3021.24
-1518.12
-7581.87
-11049.3
-16410
-18142.9
-16161.9
-15945.2
-13236.5
-12245.4
207.402
120.381
315.737
477.501
502.356
279.059
-20.7755
-600.208
-1306.59
-1944.8
-2070.7
-1725.29
-1131.08
622
2135.14
3700.87
4464.94
4946.56
5171.02
5392.02
5738.88
6055.52
6410.56
6784.61
7279.98
7972.51
8863.87
9750.99
10645.5
11665.8
12589
13310.8
13614.3
13092.9
11587.2
9720.81
6916.49
2595.55
-2110.92
-8424.99
-11916.6
-17428.4
-19233
-17136.6
-16967.8
-14139.8
-13208
245.085
42.2027
186.527
354.964
396.988
241.194
-1.7628
-463.172
-960.453
-1471.86
-1949.41
-1888.41
-1532.48
-573.387
990.839
2712.5
3803.38
4416.96
4689.08
4960
5247.94
5631.97
5985.02
6362.51
6739.14
7271.25
7994.85
8928.57
9795.45
10711.9
11664.8
12652.2
13410.4
13564
13196.2
11552.2
9475.81
6624.58
2116.85
-2754.79
-9303.6
-12864.9
-18474.6
-20354.6
-18160.5
-18024.2
-15078.3
-14207.4
278.241
-42.4618
48.596
230.958
269.485
160.537
-4.24827
-357.509
-824.408
-1279.15
-1677.25
-1929.63
-1848.23
-1315.64
-258.995
1228.86
2980.23
3705.07
4247.81
4463.82
4759.67
5071.94
5506.6
5909.05
6293.59
6684.27
7234.38
7998.04
8926.41
9791.64
10701.9
11607.5
12672.1
13446.4
13512.7
13181.5
11435.1
9209.67
6285.09
1598.55
-3467.92
-10224.8
-13900.8
-19551.5
-21504.8
-19234.8
-19113.2
-16054.6
-15243.7
231.871
-130.006
-86.0006
103.327
145.519
48.5878
-74.7322
-337.602
-686.069
-1099
-1583.18
-1905.08
-2165.73
-1870.56
-1224.1
-252.474
1612.15
2830.73
3662.37
4080.74
4273.13
4540.39
4895.27
5370.73
5804.22
6197.02
6613.68
7177.32
7982.31
8860.84
9736.85
10609.9
11498.4
12623.6
13425.1
13463.7
13078.5
11243.7
8893.78
5901.06
1041.81
-4236.45
-11176.8
-15052.7
-20649.5
-22686.4
-20357.7
-20234.3
-17067.1
-16316.1
126.345
-221.432
-207.556
-18.1591
12.9303
-74.7402
-172.97
-380.888
-656.283
-971.97
-1470.76
-1930.6
-2456.6
-2633.69
-1976.55
-1238.09
154.734
1675.95
2807.28
3591.18
3888.47
4081.05
4342.06
4701.59
5221.35
5681.06
6072.81
6505.52
7104.37
7927.33
8759.37
9614.99
10440.6
11326.6
12499.2
13335.1
13382
12921.8
10990.5
8511.88
5447.48
436.868
-5072.67
-12159.7
-16302
-21780.8
-23899
-21528.8
-21387.7
-18118.6
-17425.4
14.3878
-348.117
-294.514
-142.802
-129.185
-209.615
-297.408
-455.09
-688.046
-958.251
-1348.5
-1862.78
-2618.41
-3313.71
-2981.96
-2022.92
-903.995
392.269
1849.23
2766.75
3439.42
3666.61
3891.93
4120.27
4498.79
5039.7
5526.37
5898.78
6363.55
6972.12
7811.05
8592.61
9420.87
10195.4
11083.7
12287.2
13154.6
13262
12685.9
10705.6
8076.18
4934.76
-198.184
-5969.17
-13184.6
-17642.9
-22939.9
-25147.1
-22747.5
-22573.3
-19207.3
-18568.9
-103.09
-505.716
-379.139
-289.835
-271.926
-355.739
-440.425
-572.097
-752.651
-949.978
-1347.26
-1816.2
-2656.44
-3792.55
-4035.39
-3091.92
-1638.41
-344.047
1016
2015.05
2617.1
3196.55
3437.59
3659.68
3884.77
4258.59
4847.54
5307.07
5687.76
6160.66
6768.87
7604.69
8345.38
9128.07
9871.96
10753.2
11988.9
12898.8
13103.1
12363.5
10392.7
7567.24
4325.02
-903.646
-6940.2
-14275.8
-19064.6
-24134.8
-26431
-24012.7
-23791.2
-20334.8
-19749
-227.67
-692.814
-498.496
-446.463
-405.405
-512.417
-590.182
-709.26
-865.187
-1018
-1311.37
-1812.03
-2529.54
-4122.4
-4879.47
-4085.62
-2390.23
-765.849
437.827
1321.17
1832.99
2381.04
2912.35
3185.37
3376.67
3612.22
4008.71
4604.37
5046.73
5415.83
5917.51
6495.01
7323.77
8006.94
8733.31
9452.97
10333.5
11624.9
12555.9
12885
11955.6
10050.2
7024.05
3635.32
-1670.88
-7988.13
-15444.8
-20571.1
-25361.6
-27757
-25323.5
-25040.3
-21499.9
-20961.8
-367.136
-881.727
-638.928
-599.845
-549.131
-669.329
-749.617
-866.703
-990.496
-1117.5
-1349.47
-1750.01
-2401.57
-4147.46
-5471.84
-4715.46
-3500.28
-1336.23
-234.368
748.813
1247.79
1707.26
2088.59
2562.32
2867.59
3074.86
3320.16
3701.65
4330.14
4743.51
5090.34
5603.36
6149.95
6938.23
7572.33
8245.07
8963.81
9827.98
11175.1
12162.7
12554.3
11462.2
9636.52
6412.66
2870.23
-2504.16
-9108.07
-16702.2
-22164
-26631.7
-29127.6
-26677.3
-26322.3
-22703.7
-22212.2
-526.671
-1041.46
-799.29
-767.576
-697.377
-831.172
-915.095
-1029.63
-1142.82
-1237.62
-1418.54
-1757.71
-2261.95
-4015.48
-5638.5
-5100.57
-4059.64
-1970.23
-739.448
127.158
514.406
1142.8
1485.36
1767.96
2177.73
2511.46
2735.96
2979.19
3363.08
3999.12
4376.69
4693.24
5219.56
5718.92
6461.84
7022.21
7664.67
8368.75
9195.84
10599
11658.3
12123.2
10880.6
9175.6
5725.47
1999.34
-3417.97
-10311.3
-18060
-23846.4
-27944.7
-30549.8
-28074.5
-27635.9
-23947
-23494
-714.282
-1195.48
-981.894
-947.078
-865.47
-1005.14
-1084.6
-1198.55
-1303.66
-1381.25
-1499.23
-1773.98
-2134.7
-3807.33
-5554.47
-5158.1
-3928.08
-2332.3
-1270.75
-402.737
-32.5339
281.809
844.221
1140.81
1382.4
1763.01
2095.92
2347.21
2597.69
2971.73
3614.83
3931.05
4216.79
4732.22
5190.21
5869.64
6371.92
6967.67
7661.77
8410.68
9821.76
10987.8
11514.6
10195.2
8580.22
4954.97
1069.25
-4364.06
-11582.2
-19523.9
-25622.8
-29320.8
-32027.4
-29511.4
-28985.2
-25228.5
-24811.3
-917.506
-1367.94
-1163.65
-1116.51
-1046.07
-1179.6
-1257.49
-1368.13
-1468.21
-1535.94
-1620.67
-1791.9
-2105.31
-3499.6
-5308.77
-4732.79
-3370.72
-1943.2
-1722.37
-1207.32
-720.417
-351.449
-0.481646
449.843
778.097
985.915
1322.01
1656.11
1935.11
2150.02
2534
3134.74
3400.02
3652.91
4140.57
4538.73
5165.75
5606.81
6105.03
6765.95
7388.65
8797.86
10047
10722.4
9413.58
7905.59
4038.88
27.0425
-5390.81
-12940.7
-21093.8
-27481.3
-30774.5
-33565.6
-30989.9
-30367.6
-26547.3
-26159
-1125.47
-1554.73
-1343.83
-1279.1
-1227.16
-1366.43
-1441.36
-1541.28
-1632.92
-1691.34
-1743.81
-1863.14
-2059.94
-3168.4
-4785.64
-4010.02
-3137.81
-1449.65
-1890.35
-1832.04
-1477.48
-1145.37
-620.049
-367.331
18.0661
338.764
543.54
842.336
1180.36
1441.26
1656.71
2036.4
2562.8
2765.79
3004.3
3428.08
3769.26
4313.89
4701.6
5013.98
5589.6
6064.15
7450.76
8804.1
9666.14
8523.41
7026.08
3051
-1081.1
-6489.54
-14419.1
-22791.7
-29431.2
-32324.7
-35166.5
-32503.2
-31785.7
-27903
-27541.1
-1330.68
-1745.16
-1531.13
-1430.54
-1398.7
-1556.89
-1629.72
-1713.2
-1793.46
-1851.56
-1879.59
-1926.78
-2104.92
-2824.62
-4287.69
-3125.62
-3030.61
-1385.48
-2056.55
-2393.65
-2139.99
-1962.78
-1587.94
-1148.47
-749.534
-428.228
-101.09
93.0994
357.738
648.628
919.918
1087.5
1482.91
1885.45
2030.01
2251.18
2583.15
2884.94
3303.42
3621.58
3645.54
4076.01
4400.18
5764.02
7229.62
8297.96
7545.17
6003.88
1901.14
-2236.89
-7695.57
-16014.7
-24589.3
-31453.1
-33991.2
-36835.8
-34051.9
-33239.6
-29295
-28953.5
-1527.09
-1937.14
-1719.56
-1574.93
-1565.25
-1743.73
-1833.58
-1890.47
-1953.62
-2000.47
-2018.35
-2019.22
-2138.68
-2501.71
-3834.5
-2377.87
-2684.14
-1335.47
-2128.03
-2662.85
-2652.49
-2825.79
-2641.33
-2224.49
-1530.54
-1113.56
-883.51
-583.217
-401.327
-192.83
83.2139
318.153
455.302
851.948
1107.16
1192.58
1390.25
1595.69
1855.18
2100.13
2319.82
2006.84
2209.92
2427.86
3712.56
5296.45
6629.74
6362.18
4729.4
758.946
-3432.84
-9033.32
-17773
-26541.5
-33569.3
-35781
-38580.3
-35629
-34731.9
-30723.9
-30400
-1716.79
-2142.21
-1910.27
-1709.9
-1716.71
-1925.27
-2034.08
-2071.04
-2108.48
-2147.65
-2153.43
-2123.83
-2169.33
-2203.8
-3452.06
-1962.59
-2136.89
-874.076
-1952.74
-2672.14
-3057.98
-3681.37
-3900.3
-3506.62
-2567.77
-1801.51
-1553.01
-1349.64
-1079.59
-932.064
-774.119
-538.231
-350.168
-252.553
110.165
228.769
233.798
390.841
463.343
659.579
674.625
746.472
88.6429
6.13639
136.51
1322.11
3032.7
4592.24
5006.7
3156.74
-488.975
-4668.47
-10478.7
-19644.4
-28661.6
-35767.5
-37696
-40412.2
-37235.8
-36266.3
-32189
-31873.5
-1894.15
-2367.51
-2090.59
-1832.61
-1859.69
-2094.63
-2227.68
-2253.89
-2263.37
-2282.16
-2282.42
-2221.16
-2181.61
-1961.45
-3103.45
-1762.53
-1500.42
-119.749
-1449.18
-2600.37
-3343.47
-4468.96
-5104.2
-5017.31
-3849.32
-2625.14
-2138.44
-1953.6
-1824.13
-1666.54
-1539.98
-1405.83
-1222.8
-1100.91
-1051.03
-750.74
-756.848
-841.978
-759.458
-842.043
-756.201
-976.921
-1145.09
-2111.12
-2518.82
-2457.6
-1404.68
372.697
2282.78
3296.5
1365.03
-1710.89
-6023.33
-12118.8
-21599
-30982.2
-38066.3
-39720.8
-42339.5
-38865.8
-37845
-33686.2
-33379
-2049.85
-2602.9
-2239.65
-1948.34
-1988.99
-2252.19
-2416.08
-2433.32
-2415.98
-2414.06
-2404.21
-2317.86
-2176.72
-1801.76
-2738.35
-1671.12
-735.868
625.201
-638.788
-2288.93
-3570.86
-5238.02
-6280.15
-6389.18
-5194.84
-3588.4
-2709.54
-2420.71
-2461.69
-2426.78
-2284.08
-2175.78
-2117.33
-1980
-1944.72
-1952.37
-1754.95
-1861.74
-2068.75
-2078.09
-2327.32
-2415.99
-2881.6
-3378.6
-4614.72
-5364.97
-5408.62
-4487.91
-2650.89
-394.265
1279.49
-757.52
-3041.3
-7520.72
-13917.9
-23582
-33566.8
-40494.8
-41851.2
-44369.7
-40521.6
-39468.1
-35218.4
-34912.9
-2169.01
-2828.75
-2364.67
-2057.96
-2102.43
-2398.85
-2588.47
-2605.24
-2568.21
-2534.03
-2514.41
-2396.12
-2174.19
-1723.14
-2360.39
-1530.89
236.792
1340.93
209.251
-2034.48
-3647.09
-5911.43
-7518.4
-8029.05
-6327.51
-4602.63
-3333.38
-2807.42
-2995.37
-3043
-2998.05
-2956.23
-2906.35
-2894.78
-2823.48
-2887.12
-2981.31
-2878.8
-3116.3
-3437.49
-3604.06
-4005.68
-4345.42
-5047.88
-5976.44
-7441.45
-8562.09
-8740.75
-7961.09
-6166.9
-3386.57
-1201.47
-2958.41
-4457.55
-9209.21
-15874.8
-25577.9
-36277.8
-43050.8
-44073.9
-46504.4
-42202.5
-41140.2
-36784.8
-36475.9
-2242.18
-3037.83
-2481.22
-2149.23
-2199.06
-2532.7
-2749.95
-2766.7
-2708.39
-2651.15
-2624.7
-2481.32
-2183.65
-1730.79
-1971.52
-1230.69
1490.26
2123.44
1020.48
-1845.56
-3640.02
-6419.93
-8524.06
-9868.13
-8374.25
-5609.55
-3913.59
-3260.84
-3478.32
-3559.36
-3571.74
-3665.91
-3669.51
-3686.65
-3763.01
-3753.48
-3948.55
-4147.77
-4143.23
-4535.55
-4986.13
-5332.57
-5915.77
-6538.13
-7506.96
-8941.23
-10642.7
-12155.3
-12560.5
-11930
-10165.4
-6876.06
-4139.34
-5402.28
-6081.98
-10985.8
-18000.5
-27618.7
-39122.2
-45788
-46399.8
-48732
-43937
-42862.3
-38384.5
-38064.6
-2283.98
-3234.26
-2594.51
-2225.82
-2291.49
-2652.91
-2897.36
-2908.03
-2836.43
-2766.29
-2720.24
-2586.9
-2209.11
-1798.66
-1619.04
-675.364
3062.07
2973.01
1843.61
-1654.66
-3436.29
-6746.32
-9412.93
-11452.4
-10735.7
-7107.25
-4598.96
-3520.71
-3803.7
-3976.4
-4075.08
-4247.95
-4390.65
-4486.07
-4573.32
-4740.08
-4788.91
-5153.15
-5449.25
-5586.39
-6144.75
-6716.9
-7300.15
-8076.42
-9031.78
-10304.3
-12270
-14269
-16198.1
-16906.8
-16435.6
-14723.4
-10860.4
-7604.13
-7815.21
-8159.2
-12907.9
-20172
-29890.9
-42009.3
-48673.2
-48821.1
-51031.7
-45735.5
-44631.6
-40014.9
-39681.5
-2319.76
-3409.42
-2707.05
-2297.76
-2374.53
-2757.81
-3028.65
-3040.24
-2950.73
-2863.17
-2819.55
-2704.03
-2261.57
-1895.77
-1303.68
45.7104
4807.64
3815.55
2654.16
-1205.24
-3242.92
-6943.6
-10030.4
-12799.8
-12684.6
-8830.58
-5583.56
-3773.06
-3947.33
-4247.79
-4579.55
-4860.98
-5007.16
-5212.61
-5359.56
-5582.82
-5833.67
-5962.26
-6517.93
-6857.22
-7259.96
-7948.84
-8666.12
-9503.58
-10514.5
-11850.8
-13508
-15954
-18399.2
-20775.3
-21864.9
-21535.5
-19865.7
-15484.8
-11642.6
-10317.5
-10734.4
-14820.9
-22470.1
-32393.4
-44957.6
-51707.2
-51359.2
-53391
-47595.1
-46446.9
-41679.8
-41323.9
-2352.59
-3539.99
-2814.84
-2360.4
-2441.5
-2848.26
-3146.53
-3155.16
-3048.73
-2943.91
-2911.18
-2827.01
-2321.74
-1991.16
-1036.82
737.017
6411.27
4523.4
3401.92
-666.538
-3044.95
-6982.93
-10528.9
-13876.6
-14481.8
-10384.1
-6668.99
-4294.16
-4162.22
-4435.5
-4880.46
-5346.72
-5609.73
-5822.59
-6101.91
-6364.05
-6702.88
-7046.99
-7311.62
-8041.96
-8376.45
-9152.72
-9931.87
-10855.5
-11952.6
-13256.4
-15021
-17149.9
-20006.7
-23058.8
-25910.2
-27397.9
-27256.3
-25583.2
-20664.8
-16190.6
-12878.1
-14134.6
-16575.8
-24881.8
-35214.8
-47964.4
-54834.2
-54010.3
-55820.8
-49511.1
-48310.7
-43374.8
-42990.1
-2362.91
-3605.17
-2903.58
-2413.62
-2500.11
-2928.77
-3249.85
-3256.4
-3135.12
-3012.25
-2974.45
-2927.32
-2395.27
-2063.38
-803.487
1216.12
7438.71
5053.79
4066.01
-69.3209
-2880.22
-6950.63
-10786.3
-14619.2
-16142.1
-11809.7
-7684.92
-5058.41
-4379.52
-4737.16
-5184.95
-5635.61
-6069.76
-6430.38
-6738.22
-7131.58
-7441.58
-7951.26
-8340.83
-8824.93
-9678.71
-10077
-11172.4
-12124.8
-13296.4
-14650.3
-16349.1
-18540.4
-21244.7
-24506.3
-28275.9
-31645.8
-33561
-33559
-31919.7
-26609.7
-21307.7
-15672.2
-17702.4
-18450.1
-27429.8
-38390
-51122.8
-58096.4
-56795.5
-58320.7
-51492.7
-50218.9
-45100.8
-44680.3
-2352.19
-3617.84
-2959.47
-2458.12
-2548.04
-2992.84
-3340.74
-3341.8
-3203.57
-3068.22
-3027.44
-2992.16
-2474.39
-2108.75
-605.481
1551.52
7503.64
5505.51
4625.24
469.172
-2684
-6779.53
-10929.5
-15022.6
-17496.6
-12978.4
-8620.81
-5874.52
-4590.97
-5136.59
-5542.81
-5991.14
-6458.47
-6954.29
-7363.45
-7780.51
-8243.08
-8655.55
-9323.22
-9774.78
-10485.3
-11443.6
-12035.5
-13340.5
-14531.3
-16001.2
-17627.9
-19835.8
-22441.1
-25788.3
-29511.1
-34042.1
-38010.8
-40394
-40659.8
-38970.1
-33092.5
-26699.1
-19132.1
-21494.7
-20236.5
-30156.9
-41931
-54358.3
-61461.5
-59684.9
-60896.6
-53534.8
-52170.9
-46854.9
-46392.5
-2335.54
-3613.79
-2983.44
-2490.88
-2586.62
-3044.24
-3412.7
-3412.87
-3260.12
-3110.68
-3067.24
-3060.1
-2553.54
-2138.69
-475.697
1857.2
6563.24
5875.48
5086.9
919.731
-2299.82
-6662.77
-10895
-15105.5
-18493.9
-13884
-9402.18
-6607.14
-4723.91
-5536.8
-5858.5
-6367.93
-6897.09
-7391.36
-7904.13
-8432.47
-8916.87
-9507.3
-10016.5
-10813.2
-11380.4
-12305.5
-13363.6
-14249.7
-15721.8
-17188.3
-18980.3
-20931.6
-23729.3
-26771.8
-30806.7
-35115.8
-40476.8
-45172.7
-48082.1
-48492.1
-46620.3
-40416.2
-32662.8
-23116.5
-25260.3
-22373.1
-33060
-45809.7
-57698.3
-64944.2
-62692.8
-63545.9
-55633.9
-54163.7
-48639.5
-48126.8
-2319.32
-3611.62
-2979.09
-2513.39
-2614.91
-3078.02
-3470.27
-3468.89
-3301.34
-3140.75
-3101.87
-3094.7
-2617.31
-2150.18
-445.128
2016.61
5124.29
6157.23
5461.78
1276.78
-1849.87
-6515.61
-10788.8
-14899.7
-19072.9
-14585.9
-9909.34
-7474.23
-4994.5
-5978.45
-6226.49
-6718.55
-7269.11
-7823.05
-8382.59
-8994.07
-9587.53
-10199.8
-10887.4
-11527.4
-12442.8
-13212.3
-14257.7
-15539.4
-16635.1
-18359.4
-20086.9
-22264.9
-24606.6
-28032.4
-31555.2
-36320.4
-41416.5
-47732.8
-53183.9
-56561.4
-57260.6
-55260.5
-48350.3
-39037.1
-27920.8
-28880.7
-24631.5
-36347.3
-49871.3
-61211.6
-68552.4
-65783.1
-66273.6
-57792
-56199.6
-50449.8
-49880.4
-2305.46
-3613.39
-2960.24
-2529.35
-2635.21
-3099.96
-3510.87
-3509.57
-3330.87
-3159.89
-3124.07
-3122.48
-2672.81
-2157.2
-446.845
1994.91
3979.11
6559.08
5816.08
1578.35
-1455.42
-6331.21
-10604.1
-14494.9
-19155.2
-14949.6
-10265.2
-8367.64
-5543.46
-6463.27
-6693.85
-7128.7
-7575.7
-8202.77
-8855.28
-9495.06
-10187.9
-10885.6
-11585.6
-12424
-13175.4
-14256.2
-15208.2
-16430
-17918.4
-19248.4
-21271.5
-23243.9
-25863.6
-28707.1
-32733
-36832.6
-42429.2
-48522
-55881.3
-62161
-66015.9
-67023.6
-64622.8
-56990.3
-46332.9
-33287.7
-32531.5
-27500.3
-39928.2
-54008.9
-64826.5
-72249.1
-68951.8
-69075.9
-60006.8
-58273
-52289.1
-51653.9
-2292.85
-3617.99
-2942.73
-2541.06
-2650.01
-3110.09
-3540.45
-3532.68
-3345.56
-3172.15
-3136.09
-3147.6
-2714
-2156.62
-498.547
1943.58
3426.54
7233.09
6147.98
1886.81
-1082.69
-6169.73
-10398.2
-13966.2
-18730.6
-15053.9
-10466.3
-9040.8
-6331.68
-7023.94
-7220.5
-7551.39
-7980.22
-8597.77
-9268.9
-9966.75
-10729.2
-11509.1
-12326.9
-13132.6
-14113.3
-14984.3
-16234.9
-17373.2
-18803.9
-20525.5
-22089.2
-24459
-26705.2
-29806.5
-33242.9
-37849.8
-42643.4
-49290.6
-56503.2
-64857
-71895.4
-76213.7
-77565.7
-74905.3
-66365
-54126.7
-39470.7
-36039.7
-30654.5
-44000.8
-58294.4
-68599.9
-76056.1
-72159.7
-71958
-62278.6
-60387.9
-54151.6
-53443.9
-2282.67
-3622.89
-2928.25
-2550.28
-2658.41
-3111.65
-3551.25
-3540.59
-3347.14
-3174.6
-3140.02
-3156.13
-2748.18
-2153.39
-582.681
1878.98
3285.1
8134.42
6359.48
2094.75
-802.031
-6024.91
-10171.6
-13423.1
-17777.3
-14805.4
-10603.3
-9612.83
-7346.53
-7665
-7720.53
-7933.14
-8401.06
-9026.62
-9648.54
-10417.6
-11238.6
-12095.3
-12961.3
-13912.4
-14846.2
-15949.7
-16985.6
-18390.5
-19707.5
-21370.1
-23348.2
-25181.8
-27922
-30504.4
-34139.8
-38206.9
-43418.9
-49092.5
-56946.2
-65263.3
-74374.8
-82215.3
-86872.5
-88660.6
-86146.4
-76459.3
-62842.5
-46248.4
-39810.9
-34525
-48426.6
-62611.5
-72411.9
-79956.9
-75350.7
-74916.2
-64606.1
-62537
-56041.7
-55251.4
-2274.16
-3627.84
-2915.05
-2557.85
-2664.77
-3108.77
-3545.7
-3543.08
-3332.06
-3168.36
-3135.17
-3166.07
-2774.23
-2150.23
-678.73
1793.15
3387.13
9056.99
6448.47
2249.38
-694.916
-5936.65
-9949
-12956.4
-16470.6
-14291.1
-10700.3
-9955.84
-8407.42
-8263.11
-8168.01
-8246.15
-8782.45
-9397.11
-10022.7
-10821.6
-11713.7
-12629.1
-13593.3
-14565.9
-15668.1
-16714.1
-17976
-19196.3
-20704
-22265.7
-24124
-26397.5
-28545
-31672.4
-34647.3
-38884.4
-43583.4
-49504.7
-56350
-65436.8
-74476.6
-84147.1
-92735.3
-98067.6
-100215
-97818.7
-87222.7
-72094.5
-53710.2
-43613.9
-38706.2
-53158.5
-67050.1
-76306.8
-83990
-78453.3
-77950.6
-66991.5
-64726.1
-57952.8
-57072.7
-2266.18
-3633.63
-2905.11
-2565.71
-2669.05
-3102.14
-3532.12
-3541.86
-3301.11
-3151.65
-3127.21
-3165.47
-2790.24
-2151.02
-778.805
1716.72
3537.08
9824.47
6464.37
2291.91
-645.288
-5885.3
-9720.68
-12588.6
-14781.9
-13727.4
-10688.9
-10194
-9158.7
-8736.3
-8594.06
-8563.77
-9140.96
-9762.62
-10420.3
-11225.1
-12134
-13149.5
-14155
-15254.5
-16343.4
-17575.8
-18759
-20173.4
-21605.3
-23237.9
-25040.9
-27089.8
-29675.1
-32203.6
-35728.4
-39174.1
-44052.4
-49393.2
-56208.1
-64383.3
-74361
-83902
-94116.1
-103520
-109492
-112046
-109949
-98767.7
-82275.3
-61696.1
-48079.9
-43628.5
-57806.2
-71578.9
-79999.3
-88156.3
-81452.8
-81055.4
-69433.2
-66946.9
-59890.1
-58908.7
-2258.46
-3639.69
-2898.61
-2574.05
-2673.06
-3093.14
-3516.22
-3526.9
-3265.42
-3124.2
-3115.11
-3165.54
-2800.27
-2154.62
-865.48
1635.35
3586.41
10041.7
6421.26
2169.8
-719.646
-5889.69
-9524.77
-12400.3
-13494.1
-13207.7
-10691.4
-10197.8
-9617.08
-8788.64
-9066.74
-8873.85
-9466.64
-10107.2
-10811.2
-11620.3
-12546.3
-13599.9
-14717.1
-15858.5
-17065.8
-18279.7
-19649.6
-20969.6
-22546.4
-24170.9
-25965.6
-28031.5
-30313.4
-33202.9
-36167.5
-40094.6
-44090.2
-49639.3
-55692.9
-63658.1
-73106.9
-83575.2
-93488.7
-104176
-114345
-121109
-124542
-122615
-111023
-93021.1
-70218.3
-52797.5
-49053.7
-62489.3
-76101.2
-83344.1
-92448.1
-84357.8
-84229.1
-71933.5
-69205.3
-61845.5
-60755.3
-2251.55
-3645.69
-2895.03
-2582.97
-2676.25
-3081.76
-3499.96
-3500.89
-3229.49
-3085.29
-3101.77
-3158.9
-2805.93
-2160.09
-936.677
1551.54
3532.53
9251.71
6384.04
1987.85
-852.242
-5856.51
-9389.66
-12329.5
-12456.8
-12839.3
-10774.7
-10155
-9807.21
-8472.63
-9405.27
-9189.67
-9757.2
-10403.9
-11147.2
-11978.9
-12953.2
-14030.8
-15212.1
-16471.2
-17708.1
-19061.6
-20390.1
-21893.7
-23339
-25102.5
-26914.1
-28934.7
-31221
-33815.5
-36976.1
-40417.2
-44799.9
-49395.2
-55665.4
-62565.9
-71777.4
-82116.5
-92939.6
-103013
-114420
-125218
-133086
-137146
-135508
-123827
-104655
-79276.8
-58391.7
-55502.9
-66732.4
-80626.8
-86478.9
-96844.7
-87249.1
-87469.6
-74491.2
-71491.7
-63825.2
-62613.8
-2246.81
-3651.99
-2894.7
-2592.56
-2679.83
-3069.69
-3485.09
-3468.45
-3191.49
-3038.38
-3088.15
-3153.46
-2805.99
-2162.9
-992.475
1461.19
3420.62
7583.16
6318.92
1794.93
-967.979
-5802.94
-9276.97
-12341.9
-11292.5
-12651.3
-11072.6
-10060.8
-9749.65
-8021.24
-9538.73
-9415.01
-10058.9
-10716.2
-11485.1
-12342.7
-13356
-14464.7
-15697.6
-17016.1
-18371.6
-19745.1
-21213.8
-22663.3
-24288.8
-25910.5
-27823.7
-29835.6
-32116.9
-34618.9
-37554.2
-41024.2
-44956.5
-49868.3
-55095
-62142.2
-70084.2
-80529
-91336.3
-102288
-112580
-124826
-136354
-145210
-149960
-149055
-137320
-116904
-88909.9
-64120
-62531.2
-70760.7
-85109.7
-89665.4
-101294
-90192.6
-90782.9
-77108.7
-73812.3
-65820.1
-64480
-2242.18
-3658.8
-2897.96
-2603.32
-2683.6
-3058.78
-3474.04
-3434.87
-3152.28
-2994.19
-3074.19
-3141.18
-2806.19
-2167.43
-1033.33
1365.53
3293.45
5687.84
6162.41
1513.26
-979.335
-5745.88
-9164.03
-12458.1
-10840.4
-12658.8
-11399.9
-9900.27
-9499.83
-7377.21
-9533.23
-9566.42
-10333.2
-11042.3
-11785.5
-12676.9
-13736.2
-14870.4
-16154
-17529.2
-18970
-20465.1
-21957.9
-23529.3
-25088.9
-26859.8
-28618.3
-30750.7
-32898.5
-35518.4
-38243.1
-41541.1
-45325
-49822
-55333.1
-61223.5
-69111.7
-78185.3
-89656.6
-100623
-111584
-122410
-135518
-147748
-157412
-162975
-162385
-151029
-129819
-99296.6
-70823.9
-70462.6
-74266.8
-89431.9
-92917.8
-105729
-93204.3
-94162.4
-79785.7
-76157.7
-67837
-66354.9
-2237.32
-3666.29
-2903.43
-2614.88
-2687.62
-3047.74
-3464.74
-3402.1
-3116.55
-2952.1
-3056.34
-3129.5
-2802.09
-2168.02
-1059.87
1262.94
3160.1