/*--------------------------------*- C++ -*----------------------------------*\
| =========                 |                                                 |
| \\      /  F ield         | OpenFOAM: The Open Source CFD Toolbox           |
|  \\    /   O peration     | Version:  2212                                  |
|   \\  /    A nd           | Website:  www.openfoam.com                      |
|    \\/     M anipulation  |                                                 |
\*---------------------------------------------------------------------------*/
FoamFile
{
    version     2.0;
    format      ascii;
    arch        "LSB;label=32;scalar=64";
    class       volScalarField;
    location    "30";
    object      nut;
}
// * * * * * * * * * * * * * * * * * * * * * * * * * * * * * * * * * * * * * //

dimensions      [0 2 -1 0 0 0 0];

internalField   nonuniform List<scalar> 
165000
(
1.66585e-13
2.01023e-12
1.6696e-13
8.97926e-13
1.54757e-12
1.67377e-13
7.91688e-13
6.50722e-13
1.12853e-12
1.66816e-13
8.07622e-13
5.1311e-13
5.65364e-13
8.56251e-13
1.64078e-13
7.01109e-13
4.73198e-13
4.50577e-13
5.90902e-13
6.8189e-13
1.60749e-13
6.75698e-13
4.11025e-13
4.08562e-13
4.72414e-13
5.57647e-13
5.92846e-13
1.56959e-13
5.91222e-13
3.82072e-13
3.28146e-13
4.23973e-13
4.97946e-13
5.41044e-13
5.57395e-13
1.53592e-13
6.19208e-13
3.54569e-13
3.59598e-13
3.41319e-13
3.85696e-13
5.26211e-13
5.71626e-13
5.48753e-13
1.51728e-13
5.89756e-13
4.53812e-13
3.87065e-13
3.55967e-13
3.46303e-13
3.7705e-13
5.44253e-13
5.96896e-13
6.08034e-13
1.47206e-13
5.76809e-13
4.25423e-13
4.5991e-13
4.38088e-13
3.07687e-13
3.68575e-13
3.68078e-13
5.18481e-13
5.87118e-13
5.9102e-13
1.46622e-13
5.64012e-13
4.02401e-13
4.00477e-13
4.47093e-13
4.22913e-13
3.20357e-13
3.93606e-13
3.87682e-13
4.82158e-13
5.70272e-13
5.39179e-13
1.46063e-13
6.42489e-13
4.12541e-13
4.03048e-13
4.04809e-13
4.26396e-13
4.01905e-13
3.39316e-13
4.37553e-13
3.9391e-13
4.6266e-13
5.95639e-13
5.51685e-13
1.42411e-13
6.44899e-13
5.09921e-13
3.93435e-13
4.36313e-13
4.02171e-13
3.91861e-13
3.7784e-13
3.90842e-13
4.34966e-13
3.99955e-13
4.67906e-13
5.63749e-13
5.66229e-13
1.40791e-13
5.19849e-13
4.80252e-13
5.01087e-13
4.31079e-13
4.17644e-13
3.8483e-13
3.70712e-13
3.73957e-13
4.2486e-13
4.5837e-13
4.24467e-13
5.18239e-13
5.4863e-13
6.24339e-13
1.41144e-13
5.068e-13
3.98338e-13
4.92082e-13
5.00191e-13
4.328e-13
4.12326e-13
3.79046e-13
3.72894e-13
3.85855e-13
4.69905e-13
5.06152e-13
4.95294e-13
5.42474e-13
5.563e-13
6.33672e-13
1.41802e-13
6.52555e-13
3.72558e-13
3.8345e-13
5.1064e-13
4.59579e-13
3.91444e-13
3.8615e-13
3.85221e-13
3.71902e-13
4.25108e-13
5.36273e-13
5.29294e-13
5.49088e-13
4.8641e-13
6.71659e-13
6.4825e-13
1.41787e-13
5.55307e-13
4.69832e-13
3.89681e-13
3.97952e-13
5.04484e-13
3.99956e-13
3.67306e-13
3.88486e-13
3.69071e-13
3.86534e-13
4.08897e-13
5.9125e-13
5.71118e-13
5.20914e-13
4.46686e-13
9.62608e-13
5.69334e-13
1.42055e-13
4.28986e-13
3.71592e-13
5.05486e-13
4.16023e-13
4.42295e-13
4.72354e-13
3.44512e-13
4.22835e-13
3.84455e-13
3.75395e-13
4.14758e-13
4.13678e-13
6.30441e-13
5.77947e-13
5.12229e-13
4.60459e-13
1.0598e-12
4.9809e-13
1.42338e-13
7.192e-13
3.46162e-13
3.36015e-13
4.47211e-13
4.46692e-13
5.1038e-13
4.51362e-13
3.8101e-13
4.0691e-13
3.76731e-13
3.82607e-13
4.08325e-13
4.3679e-13
6.01019e-13
5.57986e-13
5.12965e-13
4.71389e-13
9.01057e-13
4.82581e-13
1.40833e-13
8.00086e-13
4.23461e-13
3.42622e-13
3.48561e-13
4.28755e-13
4.72053e-13
5.02149e-13
4.37264e-13
3.97488e-13
3.89011e-13
3.81082e-13
3.80821e-13
3.82288e-13
4.36698e-13
5.82223e-13
4.86065e-13
4.94369e-13
4.82265e-13
7.78496e-13
4.98276e-13
1.38314e-13
2.87145e-13
6.5707e-13
4.22378e-13
3.39561e-13
3.98864e-13
4.22557e-13
4.54668e-13
4.22469e-13
3.83063e-13
3.75198e-13
3.78398e-13
3.71493e-13
3.82813e-13
3.9712e-13
4.40463e-13
5.28265e-13
4.65576e-13
5.39552e-13
4.82728e-13
6.5907e-13
5.45732e-13
1.33303e-13
2.79649e-13
2.62757e-13
5.03058e-13
4.56962e-13
3.32103e-13
5.21272e-13
4.21182e-13
5.2491e-13
4.28018e-13
3.7994e-13
3.52112e-13
3.68503e-13
3.73357e-13
3.87016e-13
3.87741e-13
4.55718e-13
4.50442e-13
4.69226e-13
5.07624e-13
4.50829e-13
4.91851e-13
4.85179e-13
1.28738e-13
3.87066e-13
2.23781e-13
2.51841e-13
4.52077e-13
4.77818e-13
3.37466e-13
6.15956e-13
5.69014e-13
4.63887e-13
4.02228e-13
3.58931e-13
3.95931e-13
3.81322e-13
3.6382e-13
3.74212e-13
3.84335e-13
4.19003e-13
3.68457e-13
4.14917e-13
4.65509e-13
4.3355e-13
4.2499e-13
4.64404e-13
1.25939e-13
3.89741e-13
3.71995e-13
2.14223e-13
2.50171e-13
4.62346e-13
5.85993e-13
3.47817e-13
5.30293e-13
4.48894e-13
3.90433e-13
4.00738e-13
3.53618e-13
3.76662e-13
3.67755e-13
3.6459e-13
3.82923e-13
3.87057e-13
3.59935e-13
3.20962e-13
3.95512e-13
4.1863e-13
4.11451e-13
3.82268e-13
5.52399e-13
1.25378e-13
1.52772e-12
3.77562e-13
4.94537e-13
2.02843e-13
2.43657e-13
4.04665e-13
5.6538e-13
3.75483e-13
5.74475e-13
4.90737e-13
4.11934e-13
3.47927e-13
3.94307e-13
3.71134e-13
3.62178e-13
3.55584e-13
3.67081e-13
3.68036e-13
3.51609e-13
3.07246e-13
3.79952e-13
3.83276e-13
3.84328e-13
3.68302e-13
6.0749e-13
1.24804e-13
6.56419e-13
1.66519e-12
4.83509e-13
5.67863e-13
2.06447e-13
2.34054e-13
4.21581e-13
7.1117e-13
4.46765e-13
5.45038e-13
4.1807e-13
4.23379e-13
3.47264e-13
4.01156e-13
3.43083e-13
3.64594e-13
3.57125e-13
3.6942e-13
3.62603e-13
3.49236e-13
2.89949e-13
3.43687e-13
3.6299e-13
3.85091e-13
3.95741e-13
5.0342e-13
1.22363e-13
2.85906e-13
3.63059e-13
1.31515e-12
5.23126e-13
9.66226e-13
2.37966e-13
2.4078e-13
5.85557e-13
6.57171e-13
4.78181e-13
5.04384e-13
3.60683e-13
4.22275e-13
3.53959e-13
3.65468e-13
3.43427e-13
3.54338e-13
3.48084e-13
3.58258e-13
3.51335e-13
3.37403e-13
3.09578e-13
3.17563e-13
3.39058e-13
4.05468e-13
3.98883e-13
4.37623e-13
1.19519e-13
2.00314e-13
2.20169e-13
3.17459e-13
9.24483e-13
5.81345e-13
1.44864e-12
2.76291e-13
2.65125e-13
5.30198e-13
5.05006e-13
6.82265e-13
4.97917e-13
3.67075e-13
3.88831e-13
3.93327e-13
3.57769e-13
3.51303e-13
3.52587e-13
3.48023e-13
3.55229e-13
3.4207e-13
3.33403e-13
3.55078e-13
3.40696e-13
3.47258e-13
4.02007e-13
3.9932e-13
4.22804e-13
1.16457e-13
8.15011e-13
2.04069e-13
1.81047e-13
2.31299e-13
5.4724e-13
5.33857e-13
1.89521e-12
2.94639e-13
3.28579e-13
7.11689e-13
4.73917e-13
5.98306e-13
4.31876e-13
3.51884e-13
4.0903e-13
4.19591e-13
3.52832e-13
3.44798e-13
3.48052e-13
3.40664e-13
3.49488e-13
3.3838e-13
3.40339e-13
3.49725e-13
3.82283e-13
3.96495e-13
4.04171e-13
3.83568e-13
3.91512e-13
1.16556e-13
3.50058e-13
6.37567e-13
1.90925e-13
1.63835e-13
2.20016e-13
4.53953e-13
7.44832e-13
7.06629e-13
2.91035e-13
3.75882e-13
9.49055e-13
4.12378e-13
5.21371e-13
3.56002e-13
3.89954e-13
3.70942e-13
4.11703e-13
3.60745e-13
3.44426e-13
3.42174e-13
3.39164e-13
3.43003e-13
3.32813e-13
3.35755e-13
3.41943e-13
3.5224e-13
3.97558e-13
3.86356e-13
3.65474e-13
3.84331e-13
1.13417e-13
5.1207e-13
3.6813e-13
1.00159e-12
2.15251e-13
1.80228e-13
2.09786e-13
3.32305e-13
6.62166e-13
4.54676e-13
3.26546e-13
3.765e-13
7.12164e-13
4.00945e-13
4.53577e-13
3.23082e-13
3.99317e-13
3.48251e-13
4.29568e-13
3.4662e-13
3.44128e-13
3.40297e-13
3.33264e-13
3.3905e-13
3.30146e-13
3.33367e-13
3.56006e-13
3.44839e-13
3.68862e-13
3.66097e-13
3.74005e-13
4.06164e-13
1.12644e-13
5.42516e-13
5.0947e-13
3.93867e-13
8.45245e-13
2.29708e-13
2.04063e-13
2.27711e-13
2.32514e-13
4.76329e-13
4.03069e-13
4.97158e-13
4.32167e-13
5.19921e-13
4.38693e-13
3.84838e-13
3.21734e-13
3.34492e-13
3.7586e-13
3.913e-13
3.49229e-13
3.36115e-13
3.33287e-13
3.30547e-13
3.32601e-13
3.26133e-13
3.34635e-13
3.32944e-13
3.3954e-13
3.67767e-13
3.73224e-13
3.7979e-13
3.96014e-13
1.11557e-13
4.352e-13
4.18633e-13
5.38189e-13
4.38464e-13
6.14676e-13
2.64164e-13
2.42626e-13
2.27438e-13
1.93776e-13
3.74874e-13
1.5462e-12
5.47414e-13
6.95167e-13
6.36204e-13
3.92827e-13
3.39334e-13
3.39181e-13
3.18209e-13
3.72062e-13
3.66587e-13
3.41193e-13
3.37606e-13
3.31617e-13
3.25566e-13
3.28663e-13
3.23253e-13
3.23778e-13
3.2754e-13
3.34512e-13
3.5658e-13
3.637e-13
3.81682e-13
3.9991e-13
1.08312e-13
1.57428e-12
4.88814e-13
3.58769e-13
6.15421e-13
6.5317e-13
6.50164e-13
3.00243e-13
2.94122e-13
2.49897e-13
1.94073e-13
4.03564e-13
3.20356e-12
7.6299e-13
5.01314e-13
6.08796e-13
3.72668e-13
3.6707e-13
3.04622e-13
3.53932e-13
3.64173e-13
3.66335e-13
3.37779e-13
3.29746e-13
3.24863e-13
3.22436e-13
3.23325e-13
3.1903e-13
3.23697e-13
3.38888e-13
3.35304e-13
3.58827e-13
3.63762e-13
3.91435e-13
3.84112e-13
1.07048e-13
2.68307e-12
9.84506e-13
5.41774e-13
2.73536e-13
1.31537e-12
6.47675e-13
5.63451e-13
2.79726e-13
3.64506e-13
2.99141e-13
2.06548e-13
5.46428e-13
1.85732e-12
6.72506e-13
4.54234e-13
5.27949e-13
3.70568e-13
3.88639e-13
3.15696e-13
3.74695e-13
3.48102e-13
3.56829e-13
3.32628e-13
3.2698e-13
3.22877e-13
3.17974e-13
3.18934e-13
3.1527e-13
3.18115e-13
3.19623e-13
3.27688e-13
3.43902e-13
3.60821e-13
3.91988e-13
3.31152e-13
1.0398e-13
5.76615e-13
8.84543e-13
6.68824e-13
5.12506e-13
2.15369e-13
2.92199e-12
6.83898e-13
4.31938e-13
3.41599e-13
4.88676e-13
3.2997e-13
2.36018e-13
5.78815e-13
1.14996e-12
5.83466e-13
5.08626e-13
4.23892e-13
4.15097e-13
3.93349e-13
3.72218e-13
3.68333e-13
3.50933e-13
3.47956e-13
3.27682e-13
3.22899e-13
3.17025e-13
3.14255e-13
3.14127e-13
3.11718e-13
3.14019e-13
3.21068e-13
3.24758e-13
3.42952e-13
3.54121e-13
3.82804e-13
3.42387e-13
1.00733e-13
4.54495e-13
5.38668e-13
5.17825e-13
1.13256e-12
3.83942e-13
1.97906e-13
1.76894e-12
5.58903e-13
7.07674e-13
3.18403e-13
4.54099e-13
3.68714e-13
3.22907e-13
7.1319e-13
5.73664e-13
4.34012e-13
4.3659e-13
4.12639e-13
3.70235e-13
3.85797e-13
3.93151e-13
3.81607e-13
3.46406e-13
3.36978e-13
3.23675e-13
3.17466e-13
3.14001e-13
3.09906e-13
3.09629e-13
3.07178e-13
3.10267e-13
3.18413e-13
3.23633e-13
3.37596e-13
3.52497e-13
3.68095e-13
3.86655e-13
1.01743e-13
8.79496e-13
4.02881e-13
5.15983e-13
2.90615e-13
7.69507e-13
3.05464e-13
1.96255e-13
6.59229e-13
5.59334e-13
6.52662e-13
3.33739e-13
6.8864e-13
3.51368e-13
4.8118e-13
9.23583e-13
4.47497e-13
4.45141e-13
3.47446e-13
3.81517e-13
3.50161e-13
3.90091e-13
3.99866e-13
3.48374e-13
3.326e-13
3.33657e-13
3.18683e-13
3.14362e-13
3.08836e-13
3.05802e-13
3.04977e-13
3.03818e-13
3.06536e-13
3.09412e-13
3.1593e-13
3.28871e-13
3.49178e-13
3.74042e-13
3.87269e-13
1.00737e-13
2.29817e-13
5.34496e-13
5.70637e-13
4.43112e-13
2.59259e-13
1.00936e-12
3.04615e-13
1.91987e-13
2.88804e-13
7.00482e-13
4.87424e-13
5.97728e-13
1.42432e-12
3.7063e-13
5.6341e-13
9.13199e-13
5.05047e-13
3.48333e-13
3.38685e-13
3.56615e-13
3.71266e-13
3.53504e-13
3.55287e-13
3.1966e-13
3.30486e-13
3.25557e-13
3.1472e-13
3.08651e-13
3.04989e-13
3.01411e-13
3.00837e-13
2.99914e-13
3.02348e-13
3.10085e-13
3.15802e-13
3.28251e-13
3.43452e-13
3.65504e-13
3.71563e-13
9.68871e-14
1.39297e-12
2.6428e-13
4.59856e-13
5.0904e-13
4.57767e-13
2.13916e-13
4.44967e-13
3.38423e-13
1.90465e-13
2.14749e-13
9.45119e-13
7.82376e-13
7.25534e-13
4.53416e-13
4.28745e-13
3.95883e-13
4.1196e-13
5.54911e-13
3.311e-13
3.56525e-13
3.58325e-13
3.79987e-13
3.80051e-13
3.04919e-13
3.23672e-13
3.25928e-13
3.19694e-13
3.09646e-13
3.0502e-13
3.00191e-13
2.97462e-13
2.96818e-13
2.96182e-13
2.98782e-13
3.02311e-13
3.09319e-13
3.19762e-13
3.4048e-13
3.55664e-13
3.55502e-13
9.48503e-14
4.51192e-13
1.38087e-12
3.07087e-13
4.34817e-13
5.61746e-13
5.50508e-13
2.09964e-13
2.94216e-13
4.71773e-13
2.12255e-13
1.84463e-13
5.13836e-13
5.12279e-13
5.07067e-13
3.55433e-13
5.25988e-13
3.48244e-13
3.90971e-13
5.21992e-13
3.4482e-13
3.46272e-13
3.66847e-13
3.69314e-13
3.55391e-13
3.09477e-13
3.24805e-13
3.18249e-13
3.14668e-13
3.05432e-13
2.99769e-13
2.96254e-13
2.9357e-13
2.92745e-13
2.92309e-13
2.94736e-13
3.00827e-13
3.07072e-13
3.17666e-13
3.32123e-13
3.38086e-13
3.56762e-13
9.52321e-14
3.8961e-13
1.05866e-12
7.78895e-13
2.36561e-13
3.60684e-13
6.64231e-13
4.45725e-13
1.98394e-13
2.35249e-13
5.50243e-13
2.69073e-13
1.99262e-13
4.05644e-13
5.87875e-13
4.45129e-13
4.31373e-13
6.79478e-13
4.1764e-13
4.56774e-13
3.88571e-13
3.57647e-13
3.35977e-13
3.78954e-13
3.9086e-13
3.23474e-13
3.19712e-13
3.14716e-13
3.13595e-13
3.08144e-13
3.00413e-13
2.95898e-13
2.92145e-13
2.89596e-13
2.88687e-13
2.88638e-13
2.91286e-13
2.95406e-13
3.02316e-13
3.11484e-13
3.26625e-13
3.32253e-13
3.25364e-13
9.59957e-14
4.65374e-13
3.51399e-13
1.1242e-12
4.25468e-13
2.5334e-13
3.24489e-13
6.35929e-13
3.88332e-13
2.33677e-13
2.36951e-13
9.47455e-13
3.6883e-13
3.04971e-13
3.43604e-13
3.31545e-13
3.91721e-13
4.75773e-13
7.43282e-13
3.35318e-13
3.5734e-13
3.72912e-13
3.6535e-13
3.69417e-13
4.00769e-13
4.14809e-13
3.41851e-13
3.06451e-13
3.11258e-13
3.08901e-13
3.03399e-13
2.96236e-13
2.91515e-13
2.88109e-13
2.85574e-13
2.84859e-13
2.85012e-13
2.87391e-13
2.92398e-13
2.98768e-13
3.07687e-13
3.19907e-13
3.27778e-13
3.13568e-13
9.48587e-14
2.1011e-12
2.66346e-13
3.37998e-13
4.36185e-13
3.81043e-13
2.23662e-13
2.62594e-13
4.98842e-13
4.07811e-13
2.41897e-13
2.59866e-13
7.09312e-13
6.07508e-13
4.27533e-13
3.51379e-13
4.05928e-13
4.79286e-13
8.09002e-13
7.77577e-13
3.15356e-13
2.88704e-13
3.65512e-13
4.16365e-13
3.2825e-13
4.36043e-13
3.68858e-13
3.31833e-13
3.11835e-13
3.06996e-13
3.02027e-13
2.97922e-13
2.91825e-13
2.87451e-13
2.83948e-13
2.81766e-13
2.81102e-13
2.81331e-13
2.83872e-13
2.88068e-13
2.94647e-13
3.02782e-13
3.14511e-13
3.21681e-13
3.25965e-13
9.18976e-14
1.10164e-13
1.17321e-12
1.79381e-13
4.45239e-13
3.02516e-13
2.97025e-13
1.93483e-13
2.62534e-13
4.3861e-13
5.15454e-13
2.63305e-13
3.8601e-13
4.53415e-13
5.23258e-13
6.85514e-13
5.09574e-13
3.96692e-13
3.67114e-13
8.43199e-13
1.06101e-12
3.17482e-13
2.66565e-13
3.74005e-13
4.93963e-13
3.28295e-13
3.83987e-13
3.27758e-13
3.30732e-13
3.06671e-13
3.01342e-13
2.98941e-13
2.93417e-13
2.87597e-13
2.83129e-13
2.80045e-13
2.78004e-13
2.77334e-13
2.77765e-13
2.80097e-13
2.84501e-13
2.90752e-13
2.98478e-13
3.09393e-13
3.15049e-13
3.14108e-13
9.16965e-14
8.96151e-14
1.26191e-13
1.04565e-12
1.70035e-13
3.47095e-13
3.85708e-13
2.90317e-13
2.13199e-13
2.19685e-13
5.01645e-13
6.84108e-13
2.47488e-13
5.61734e-13
5.27539e-13
4.02674e-13
8.31317e-13
4.28498e-13
3.4183e-13
2.83086e-13
7.21613e-13
9.8316e-13
3.23471e-13
2.69752e-13
4.27858e-13
4.05342e-13
3.48682e-13
3.49932e-13
3.06817e-13
3.11612e-13
3.0134e-13
2.98467e-13
2.92729e-13
2.88587e-13
2.83175e-13
2.79141e-13
2.76174e-13
2.74225e-13
2.73687e-13
2.74101e-13
2.76504e-13
2.80584e-13
2.86789e-13
2.94173e-13
3.04356e-13
3.10895e-13
3.07773e-13
9.11729e-14
9.44776e-13
8.51965e-14
9.97705e-14
8.01589e-13
1.50469e-13
3.86686e-13
2.89699e-13
3.05629e-13
1.91667e-13
2.25276e-13
3.63279e-13
1.16844e-12
2.51012e-13
5.03895e-13
4.96576e-13
4.49871e-13
4.94885e-13
4.35547e-13
3.46626e-13
2.56643e-13
6.59421e-13
8.11547e-13
3.68211e-13
2.79123e-13
3.68086e-13
3.33642e-13
3.52463e-13
3.53527e-13
2.95514e-13
3.12018e-13
3.02765e-13
2.92743e-13
2.89245e-13
2.83986e-13
2.79048e-13
2.7515e-13
2.72306e-13
2.70551e-13
2.6997e-13
2.70523e-13
2.72824e-13
2.76908e-13
2.83016e-13
2.89997e-13
2.99411e-13
3.05327e-13
3.07216e-13
8.84341e-14
8.99772e-14
1.2054e-12
8.94041e-14
1.3413e-13
3.82955e-13
1.47623e-13
5.62227e-13
2.48403e-13
2.5014e-13
1.76897e-13
2.3386e-13
3.03685e-13
1.12037e-12
3.88769e-13
4.77036e-13
4.06347e-13
6.35345e-13
6.64104e-13
6.23414e-13
3.45404e-13
2.38592e-13
3.18877e-13
5.44859e-13
3.97331e-13
3.48134e-13
3.92206e-13
3.31436e-13
3.70371e-13
3.49171e-13
3.07273e-13
3.04231e-13
2.92195e-13
2.89729e-13
2.839e-13
2.79541e-13
2.74939e-13
2.71195e-13
2.68541e-13
2.66808e-13
2.66341e-13
2.66903e-13
2.69253e-13
2.73319e-13
2.79222e-13
2.85821e-13
2.94725e-13
3.00673e-13
3.0018e-13
8.80269e-14
1.62057e-13
8.48016e-14
5.80361e-13
1.2231e-13
1.19441e-13
2.5702e-13
1.48192e-13
4.04026e-13
2.1159e-13
2.49051e-13
1.51265e-13
2.5764e-13
2.60483e-13
1.04326e-12
1.19305e-12
5.92186e-13
3.11709e-13
5.51922e-13
4.14283e-13
7.43636e-13
3.26552e-13
2.40573e-13
2.53183e-13
5.72407e-13
3.70867e-13
3.88967e-13
3.2354e-13
3.30703e-13
3.47579e-13
3.30592e-13
2.98613e-13
2.97554e-13
2.93612e-13
2.84316e-13
2.79936e-13
2.7527e-13
2.70869e-13
2.67336e-13
2.64722e-13
2.63145e-13
2.6268e-13
2.63377e-13
2.65818e-13
2.69757e-13
2.75433e-13
2.81731e-13
2.90119e-13
2.95825e-13
2.96951e-13
8.6353e-14
3.91321e-13
1.73111e-13
7.26199e-14
5.59004e-13
1.20635e-13
1.31296e-13
1.57711e-13
1.65578e-13
3.62207e-13
1.6554e-13
2.31649e-13
1.35513e-13
2.44283e-13
2.30651e-13
4.43588e-13
7.39875e-13
6.95992e-13
3.00378e-13
5.50907e-13
4.20283e-13
6.13417e-13
2.82559e-13
2.87252e-13
2.55596e-13
4.55851e-13
3.89683e-13
3.40576e-13
3.1469e-13
3.28122e-13
3.35485e-13
3.33253e-13
3.05755e-13
2.95362e-13
2.84894e-13
2.80702e-13
2.75408e-13
2.7101e-13
2.66899e-13
2.63442e-13
2.60985e-13
2.59449e-13
2.59127e-13
2.59992e-13
2.62372e-13
2.66203e-13
2.71642e-13
2.77705e-13
2.85606e-13
2.91179e-13
2.92246e-13
8.5389e-14
1.48991e-13
3.10433e-13
1.04998e-13
8.85656e-14
9.08855e-13
1.37459e-13
1.19161e-13
1.34722e-13
1.32884e-13
3.42311e-13
1.40767e-13
2.12385e-13
1.39348e-13
3.29823e-13
2.86721e-13
3.38494e-13
6.73792e-13
3.83431e-13
3.57775e-13
4.01049e-13
3.56212e-13
5.5378e-13
3.50606e-13
3.24172e-13
2.5587e-13
4.11892e-13
5.10569e-13
3.10165e-13
3.08247e-13
3.22789e-13
3.32686e-13
3.13198e-13
2.93177e-13
2.88195e-13
2.83052e-13
2.76008e-13
2.71252e-13
2.66911e-13
2.629e-13
2.59628e-13
2.57218e-13
2.55867e-13
2.55717e-13
2.56591e-13
2.58955e-13
2.62617e-13
2.67887e-13
2.73721e-13
2.81257e-13
2.86856e-13
2.88065e-13
8.41082e-14
2.66668e-13
1.29638e-13
2.14916e-13
1.01339e-13
9.90297e-14
1.49653e-12
1.24114e-13
1.72257e-13
1.36035e-13
1.3398e-13
3.33666e-13
1.38114e-13
3.00187e-13
1.79454e-13
5.72836e-13
3.94349e-13
3.011e-13
3.48537e-13
3.06463e-13
4.1636e-13
2.80236e-13
3.52652e-13
7.17685e-13
4.55371e-13
4.04423e-13
2.62213e-13
4.20644e-13
4.48442e-13
3.12284e-13
2.9387e-13
3.13215e-13
3.08852e-13
3.05514e-13
2.94892e-13
2.84968e-13
2.77261e-13
2.71971e-13
2.67052e-13
2.62784e-13
2.58986e-13
2.55793e-13
2.53579e-13
2.52421e-13
2.52295e-13
2.53232e-13
2.55466e-13
2.59061e-13
2.64165e-13
2.69833e-13
2.77265e-13
2.82537e-13
2.83951e-13
8.3012e-14
1.05555e-13
3.00028e-13
8.04016e-14
4.0185e-13
9.81313e-14
1.20067e-13
2.8828e-13
1.2311e-13
1.30195e-13
1.26792e-13
1.30364e-13
2.97024e-13
1.95736e-13
4.62684e-13
1.47018e-13
8.30277e-13
5.18415e-13
3.21989e-13
4.11812e-13
2.68314e-13
3.91824e-13
2.54757e-13
2.40609e-13
4.35022e-13
6.65243e-13
4.4303e-13
2.65124e-13
3.73516e-13
3.88103e-13
3.34415e-13
3.18364e-13
3.14983e-13
3.1404e-13
3.00622e-13
2.86043e-13
2.79631e-13
2.73439e-13
2.67639e-13
2.629e-13
2.58762e-13
2.55052e-13
2.52086e-13
2.50073e-13
2.48966e-13
2.48928e-13
2.49777e-13
2.52009e-13
2.55549e-13
2.60497e-13
2.66354e-13
2.73311e-13
2.78313e-13
2.79866e-13
8.18592e-14
2.24027e-13
9.61044e-14
3.63399e-13
7.00376e-14
2.37426e-13
1.33304e-13
1.46195e-13
3.46355e-13
1.06895e-13
1.22312e-13
1.1225e-13
1.4705e-13
2.46666e-13
4.84209e-13
9.18396e-13
1.91266e-13
4.74136e-13
9.80755e-13
4.10753e-13
5.74835e-13
2.59074e-13
3.99548e-13
3.00493e-13
2.48793e-13
3.10982e-13
1.13065e-12
4.49758e-13
3.4748e-13
3.13706e-13
3.29026e-13
3.27644e-13
3.08589e-13
3.0347e-13
2.97421e-13
2.90815e-13
2.83354e-13
2.75167e-13
2.68875e-13
2.63461e-13
2.58805e-13
2.54716e-13
2.51253e-13
2.48509e-13
2.46563e-13
2.45579e-13
2.45454e-13
2.46359e-13
2.48601e-13
2.52064e-13
2.57292e-13
2.62864e-13
2.69283e-13
2.74239e-13
2.75851e-13
8.07631e-14
7.91307e-14
1.99819e-13
7.05376e-14
2.30101e-13
7.6477e-14
2.61415e-13
2.21161e-13
1.19672e-13
2.64462e-13
1.07426e-13
9.06071e-14
1.15378e-13
1.24744e-13
2.38302e-13
3.24265e-13
4.27887e-13
2.56302e-13
2.97259e-13
4.63911e-13
2.67456e-13
4.86339e-13
3.495e-13
3.93811e-13
3.16662e-13
1.97521e-13
2.60494e-13
7.5747e-13
5.16011e-13
3.43271e-13
3.31227e-13
3.34828e-13
3.08039e-13
3.03811e-13
3.01084e-13
2.96065e-13
2.87373e-13
2.77235e-13
2.70667e-13
2.64517e-13
2.59262e-13
2.54695e-13
2.50828e-13
2.47581e-13
2.4493e-13
2.43132e-13
2.42073e-13
2.42022e-13
2.42998e-13
2.45201e-13
2.49086e-13
2.54048e-13
2.59168e-13
2.65477e-13
2.70214e-13
2.72056e-13
7.96747e-14
4.59781e-14
6.89941e-14
4.16316e-13
8.84462e-14
6.39953e-13
1.22051e-13
3.71359e-13
1.89571e-13
8.09461e-14
3.97075e-13
1.00958e-13
9.43129e-14
1.0434e-13
1.29903e-13
2.27796e-13
4.15663e-13
5.04345e-13
3.672e-13
3.18119e-13
3.87192e-13
2.53282e-13
3.98071e-13
4.50981e-13
3.43781e-13
2.95887e-13
1.87452e-13
2.74798e-13
3.89222e-13
6.94032e-13
3.46886e-13
3.27079e-13
3.2209e-13
3.15101e-13
3.04296e-13
2.94756e-13
2.87266e-13
2.79734e-13
2.72888e-13
2.65941e-13
2.60233e-13
2.55068e-13
2.50729e-13
2.47059e-13
2.43913e-13
2.4144e-13
2.39578e-13
2.38615e-13
2.38657e-13
2.39632e-13
2.42343e-13
2.4605e-13
2.50501e-13
2.55716e-13
2.617e-13
2.66464e-13
2.68328e-13
7.86131e-14
5.32663e-13
4.84913e-14
7.24279e-14
4.25878e-13
1.10896e-13
5.91561e-13
1.15206e-13
3.02366e-13
2.018e-13
7.41538e-14
2.44806e-13
1.01444e-13
9.49911e-14
9.18867e-14
1.93183e-13
2.24745e-13
8.321e-13
3.44561e-13
4.79842e-13
2.86097e-13
3.44733e-13
2.62063e-13
5.32584e-13
4.94934e-13
3.36312e-13
3.18753e-13
1.94301e-13
2.50155e-13
3.39426e-13
4.95244e-13
3.43171e-13
3.32275e-13
3.18927e-13
3.03078e-13
2.92807e-13
2.88084e-13
2.8252e-13
2.75539e-13
2.67798e-13
2.61585e-13
2.55849e-13
2.50995e-13
2.4687e-13
2.4329e-13
2.40337e-13
2.3782e-13
2.36075e-13
2.35233e-13
2.35281e-13
2.3683e-13
2.3942e-13
2.42642e-13
2.47231e-13
2.52275e-13
2.58203e-13
2.62789e-13
2.64525e-13
7.75717e-14
2.52698e-13
3.47789e-13
4.97426e-14
8.7498e-14
2.69531e-13
4.25723e-13
4.32111e-13
1.07248e-13
1.66777e-13
1.513e-13
8.95462e-14
1.88959e-13
8.92671e-14
9.92888e-14
1.00731e-13
7.17414e-13
4.07453e-13
1.50731e-12
2.78818e-13
5.63584e-13
2.1107e-13
2.80515e-13
2.6383e-13
5.73066e-13
3.68298e-13
3.08613e-13
3.29147e-13
2.25836e-13
2.40227e-13
2.94321e-13
3.78669e-13
3.449e-13
3.29594e-13
3.07775e-13
2.94315e-13
2.91459e-13
2.83999e-13
2.76546e-13
2.69527e-13
2.63133e-13
2.56964e-13
2.51681e-13
2.47031e-13
2.43008e-13
2.39627e-13
2.36639e-13
2.3425e-13
2.32654e-13
2.31834e-13
2.32482e-13
2.33961e-13
2.36077e-13
2.39532e-13
2.43969e-13
2.49104e-13
2.54772e-13
2.59008e-13
2.61009e-13
7.65476e-14
8.07687e-13
5.73829e-13
3.63711e-13
6.55568e-14
1.70455e-13
1.40893e-13
2.4179e-13
1.42696e-13
1.0132e-13
8.78507e-14
1.30833e-13
7.74648e-14
1.39054e-13
7.90376e-14
9.36717e-14
1.35406e-13
5.02476e-13
2.69376e-13
1.79177e-12
2.77676e-13
3.46074e-13
2.24545e-13
2.67886e-13
2.49491e-13
5.60282e-13
2.98295e-13
4.22976e-13
4.32424e-13
2.87656e-13
2.62054e-13
2.88855e-13
3.17657e-13
3.4431e-13
3.12106e-13
3.00215e-13
2.94625e-13
2.83381e-13
2.7702e-13
2.71251e-13
2.64904e-13
2.58369e-13
2.52675e-13
2.47565e-13
2.43065e-13
2.39265e-13
2.35854e-13
2.32991e-13
2.3077e-13
2.29213e-13
2.29011e-13
2.29617e-13
2.30644e-13
2.33048e-13
2.36426e-13
2.40979e-13
2.45983e-13
2.5116e-13
2.55512e-13
2.57336e-13
7.55398e-14
2.57864e-14
5.2769e-13
2.86284e-13
4.61977e-13
6.18103e-14
2.50309e-13
9.19903e-14
2.00583e-13
1.25907e-13
8.04043e-14
1.00939e-13
9.61151e-14
9.5081e-14
1.2018e-13
8.43138e-14
1.05049e-13
1.78632e-13
3.70551e-13
4.87693e-13
8.374e-13
4.167e-13
2.2053e-13
2.76906e-13
2.67823e-13
2.62156e-13
4.08411e-13
3.11754e-13
8.44524e-13
4.02869e-13
3.62236e-13
2.88372e-13
2.91808e-13
2.50779e-13
3.09119e-13
2.99959e-13
2.93891e-13
2.83005e-13
2.79044e-13
2.72801e-13
2.66056e-13
2.59689e-13
2.5382e-13
2.48385e-13
2.43481e-13
2.39224e-13
2.35411e-13
2.32131e-13
2.29448e-13
2.27268e-13
2.2634e-13
2.2613e-13
2.26294e-13
2.27651e-13
2.30025e-13
2.33593e-13
2.38035e-13
2.426e-13
2.4781e-13
2.51904e-13
2.54013e-13
7.45608e-14
1.33351e-13
2.10923e-14
4.62966e-13
2.02324e-12
3.42999e-13
6.60208e-14
8.81599e-13
6.76342e-14
3.10506e-13
1.38441e-13
7.57507e-14
6.52293e-14
8.89272e-14
9.51094e-14
1.1739e-13
1.04561e-13
1.26126e-13
1.92332e-13
2.85602e-13
2.9645e-13
4.68742e-13
6.21028e-13
1.97073e-13
3.69802e-13
3.1558e-13
2.6448e-13
3.30688e-13
3.21123e-13
7.11242e-13
3.58408e-13
4.64186e-13
3.44216e-13
2.72442e-13
2.61675e-13
2.88934e-13
2.94221e-13
2.87021e-13
2.81431e-13
2.73244e-13
2.66767e-13
2.6092e-13
2.55054e-13
2.49395e-13
2.44169e-13
2.3952e-13
2.35284e-13
2.31608e-13
2.2852e-13
2.25879e-13
2.24321e-13
2.23416e-13
2.22788e-13
2.23299e-13
2.24668e-13
2.27276e-13
2.30797e-13
2.34769e-13
2.39447e-13
2.44381e-13
2.48661e-13
2.50688e-13
7.35874e-14
4.17041e-14
6.53451e-14
1.87257e-14
1.06433e-12
3.71289e-13
7.54155e-13
6.59037e-14
3.17265e-13
5.75434e-14
1.65685e-13
9.62792e-14
6.35644e-14
6.48522e-14
1.05158e-13
1.2849e-13
1.31547e-13
1.48749e-13
1.34199e-13
1.40896e-13
2.18669e-13
4.61152e-13
5.02014e-13
2.73178e-13
1.67441e-13
8.98944e-13
4.35262e-13
2.72684e-13
2.69465e-13
3.59055e-13
5.73909e-13
4.36909e-13
4.94918e-13
5.28265e-13
2.84224e-13
2.71338e-13
2.94002e-13
2.86821e-13
2.80848e-13
2.73644e-13
2.68014e-13
2.621e-13
2.56056e-13
2.50393e-13
2.44991e-13
2.40073e-13
2.35481e-13
2.31392e-13
2.27926e-13
2.2489e-13
2.22849e-13
2.21333e-13
2.20039e-13
2.19773e-13
2.20318e-13
2.21958e-13
2.24564e-13
2.27636e-13
2.31718e-13
2.36242e-13
2.41321e-13
2.45369e-13
2.47262e-13
7.26378e-14
4.34094e-13
3.93115e-14
4.70855e-14
1.74647e-14
5.42885e-13
3.41326e-13
5.302e-13
1.00923e-13
8.51829e-14
4.60699e-14
1.49673e-13
1.01878e-13
6.20362e-14
5.4305e-14
9.50034e-14
2.23289e-13
2.36819e-13
2.7471e-13
2.05491e-13
2.1167e-13
2.1953e-13
3.03857e-13
3.81597e-13
2.57816e-13
2.12572e-13
7.15875e-13
4.68622e-13
2.81293e-13
2.66196e-13
4.95293e-13
4.3616e-13
5.85681e-13
4.56024e-13
4.64776e-13
2.96031e-13
2.81345e-13
2.81751e-13
2.81963e-13
2.76e-13
2.69311e-13
2.62867e-13
2.56846e-13
2.51318e-13
2.45864e-13
2.40768e-13
2.35924e-13
2.31484e-13
2.2763e-13
2.2423e-13
2.21771e-13
2.19787e-13
2.1791e-13
2.16984e-13
2.16776e-13
2.17609e-13
2.19287e-13
2.2146e-13
2.24672e-13
2.28646e-13
2.33403e-13
2.38149e-13
2.42034e-13
2.44127e-13
7.17055e-14
3.25668e-13
9.44492e-14
3.739e-14
3.20079e-14
1.80506e-14
4.37228e-13
1.6725e-13
2.87654e-13
6.12111e-14
1.09743e-13
3.49416e-14
1.67784e-13
1.38325e-13
6.83383e-14
6.85539e-14
9.17213e-14
9.82493e-13
9.89345e-13
4.01099e-13
4.60443e-13
1.89054e-13
2.55759e-13
2.13935e-13
2.567e-13
1.94083e-13
2.54105e-13
1.05606e-12
3.19704e-13
2.23241e-13
2.82254e-13
6.55283e-13
2.34551e-13
4.75782e-13
3.14265e-13
2.39708e-13
2.59759e-13
2.86887e-13
2.84593e-13
2.75849e-13
2.69395e-13
2.63645e-13
2.57741e-13
2.52198e-13
2.46647e-13
2.41493e-13
2.36493e-13
2.31814e-13
2.2763e-13
2.23857e-13
2.21014e-13
2.18634e-13
2.16314e-13
2.14799e-13
2.13951e-13
2.14046e-13
2.14941e-13
2.16209e-13
2.1854e-13
2.2171e-13
2.25943e-13
2.30387e-13
2.34978e-13
2.38989e-13
2.41068e-13
7.079e-14
2.01162e-13
1.30944e-13
6.52224e-14
3.8648e-14
2.47916e-14
1.75493e-14
4.48652e-13
9.12538e-14
3.6981e-13
8.55186e-14
6.07004e-14
3.52016e-14
2.80872e-13
1.61215e-13
6.73072e-14
9.20692e-14
1.19637e-13
1.87319e-13
3.25809e-13
3.09055e-13
5.00412e-13
2.15572e-13
1.92325e-13
1.91787e-13
2.22259e-13
2.65723e-13
4.10614e-13
5.57381e-13
2.83449e-13
2.18429e-13
2.68524e-13
4.27134e-13
2.23455e-13
4.20031e-13
2.90282e-13
2.36199e-13
2.907e-13
2.82185e-13
2.74791e-13
2.70902e-13
2.65047e-13
2.58579e-13
2.52934e-13
2.47344e-13
2.42178e-13
2.37113e-13
2.32272e-13
2.27861e-13
2.23772e-13
2.20538e-13
2.17795e-13
2.15109e-13
2.13142e-13
2.11717e-13
2.11177e-13
2.11359e-13
2.11863e-13
2.13304e-13
2.1564e-13
2.19116e-13
2.23017e-13
2.27405e-13
2.32089e-13
2.36002e-13
2.38054e-13
6.98922e-14
5.37492e-14
2.59976e-13
1.03453e-13
3.28787e-14
3.43019e-14
2.36416e-14
1.85633e-14
2.57946e-13
2.60179e-13
1.16951e-13
6.90812e-14
4.18395e-14
3.43907e-14
3.67716e-13
1.6717e-13
6.68978e-14
1.35522e-13
2.11526e-13
1.38597e-13
2.59663e-13
5.07128e-13
2.42889e-13
2.99427e-13
2.10666e-13
1.71814e-13
1.76122e-13
3.31042e-13
2.07027e-13
3.4248e-13
2.53013e-13
2.08444e-13
2.44351e-13
3.49872e-13
2.78564e-13
3.4671e-13
3.34277e-13
3.2546e-13
2.95953e-13
2.7843e-13
2.72507e-13
2.65097e-13
2.59015e-13
2.53674e-13
2.48032e-13
2.42837e-13
2.37703e-13
2.32782e-13
2.28218e-13
2.23911e-13
2.20339e-13
2.17229e-13
2.14219e-13
2.11877e-13
2.10003e-13
2.08885e-13
2.08451e-13
2.08268e-13
2.0895e-13
2.10436e-13
2.13109e-13
2.16262e-13
2.20154e-13
2.24689e-13
2.29237e-13
2.33097e-13
2.3491e-13
6.90126e-14
1.29663e-13
4.7985e-14
2.04428e-13
1.3122e-13
3.11631e-14
3.08315e-14
2.04048e-14
2.16876e-14
1.56526e-13
7.54542e-14
9.30211e-14
2.33123e-13
4.67088e-14
3.94272e-14
1.73202e-13
1.74241e-13
7.29036e-14
1.30514e-13
1.39702e-13
1.16451e-13
5.62355e-13
3.20844e-13
8.31507e-13
4.94011e-13
2.19515e-13
3.49859e-13
2.11354e-13
7.1435e-13
2.75738e-13
2.08671e-13
2.75713e-13
2.65988e-13
2.79153e-13
2.01002e-13
2.85903e-13
2.65815e-13
3.2549e-13
2.9519e-13
2.80472e-13
2.72605e-13
2.65434e-13
2.6024e-13
2.54575e-13
2.4867e-13
2.43438e-13
2.38264e-13
2.33282e-13
2.28635e-13
2.24178e-13
2.20359e-13
2.16929e-13
2.13595e-13
2.10923e-13
2.08679e-13
2.07105e-13
2.06107e-13
2.05336e-13
2.05335e-13
2.06088e-13
2.07934e-13
2.10294e-13
2.13493e-13
2.17555e-13
2.21995e-13
2.26496e-13
2.29977e-13
2.32231e-13
6.81445e-14
7.01424e-14
5.47639e-14
5.03027e-14
7.47981e-13
3.04493e-13
3.19089e-14
3.53102e-14
1.981e-14
2.06183e-14
1.46686e-13
4.2999e-14
7.01691e-14
1.97684e-13
4.08322e-14
5.09137e-14
1.42604e-13
2.78524e-13
1.18744e-13
1.61371e-13
1.11974e-13
1.43658e-13
2.86229e-13
9.91748e-13
3.47665e-13
4.26334e-13
2.90624e-13
2.19478e-13
1.89163e-13
4.0901e-13
1.97964e-13
4.41676e-13
4.88957e-13
4.39567e-13
2.63607e-13
1.90299e-13
3.12579e-13
3.02964e-13
2.97658e-13
2.80665e-13
2.7648e-13
2.67397e-13
2.61279e-13
2.54895e-13
2.49183e-13
2.44029e-13
2.38802e-13
2.33776e-13
2.29053e-13
2.24511e-13
2.20508e-13
2.16845e-13
2.13231e-13
2.10228e-13
2.07666e-13
2.05713e-13
2.04262e-13
2.02958e-13
2.0237e-13
2.0246e-13
2.03585e-13
2.05134e-13
2.07583e-13
2.10983e-13
2.14966e-13
2.19426e-13
2.23439e-13
2.27382e-13
2.29328e-13
6.7298e-14
9.4705e-14
5.69372e-14
3.98391e-14
7.31447e-14
2.12785e-13
1.30606e-13
2.68483e-14
5.37262e-14
1.87516e-14
1.94703e-14
1.01107e-13
4.59181e-14
5.55526e-14
3.20413e-13
4.26709e-14
7.49185e-14
1.59054e-13
3.61527e-12
2.88254e-13
2.68316e-13
1.9182e-13
1.14718e-13
4.06734e-13
1.57377e-12
7.99374e-13
3.42023e-13
2.52829e-13
1.52985e-13
1.5224e-13
3.14293e-13
2.40673e-13
4.30317e-13
1.19407e-12