/*--------------------------------*- C++ -*----------------------------------*\
| =========                 |                                                 |
| \\      /  F ield         | OpenFOAM: The Open Source CFD Toolbox           |
|  \\    /   O peration     | Version:  2212                                  |
|   \\  /    A nd           | Website:  www.openfoam.com                      |
|    \\/     M anipulation  |                                                 |
\*---------------------------------------------------------------------------*/
FoamFile
{
    version     2.0;
    format      ascii;
    arch        "LSB;label=32;scalar=64";
    class       volScalarField;
    location    "30";
    object      p;
}
// * * * * * * * * * * * * * * * * * * * * * * * * * * * * * * * * * * * * * //

dimensions      [0 2 -2 0 0 0 0];

internalField   nonuniform List<scalar> 
165000
(
-7.95418e-05
-2.73643e-05
-0.000121177
-2.33822e-05
4.93688e-06
-7.67027e-05
6.81124e-06
2.45837e-05
6.3041e-05
-2.87768e-05
1.65956e-05
3.67048e-05
0.000139328
8.6801e-05
-1.3638e-05
1.17729e-06
8.241e-05
8.07928e-05
0.000246927
0.000116398
8.87067e-05
-4.32198e-06
5.76407e-05
0.000162126
0.000144425
0.000314414
0.000139584
0.000264367
-1.52094e-05
1.6701e-05
0.000142044
0.000209745
0.000160462
0.00029959
7.90681e-05
0.000411372
9.01821e-06
4.2821e-05
8.38601e-05
0.000149065
0.000216269
0.000203873
0.000196982
-2.70516e-05
0.000483788
2.04506e-05
0.00010325
0.000167381
0.000167997
0.000121802
0.00019345
0.000259451
0.000137332
-8.59193e-05
0.000457794
2.67369e-05
0.000143157
0.000248088
0.00027332
0.000301134
0.000129207
0.000180976
0.000298766
0.000142982
-6.95336e-05
0.000214617
4.55288e-05
0.000167538
0.000371036
0.000423209
0.000439239
0.000458956
0.000291342
0.000251099
0.000323486
0.000177145
-9.88708e-05
-2.77131e-07
3.98628e-05
0.000256496
0.000394285
0.000580792
0.000668072
0.000614195
0.000574144
0.000564467
0.000378951
0.000263297
0.000217521
-0.000166602
-2.34252e-05
7.65014e-05
0.000238977
0.000576096
0.000590743
0.000815449
0.000849345
0.000752928
0.000759628
0.000861696
0.000511567
0.000196888
0.000268314
-8.78035e-05
8.50684e-05
5.07232e-05
0.000314451
0.000511912
0.00073727
0.000814108
0.00101437
0.000984443
0.000841232
0.000952524
0.00105099
0.000602352
0.000226942
0.000314935
0.000129805
0.000246688
6.64326e-05
0.000246692
0.000620692
0.00068523
0.000859208
0.00102648
0.00121257
0.00107504
0.000916694
0.00117114
0.00109213
0.000714464
0.0003669
0.000290682
0.000379576
0.000417524
0.00010299
0.000310638
0.000598261
0.000834779
0.0008806
0.00106494
0.00127248
0.001385
0.00117245
0.00106201
0.00135037
0.00109824
0.000833544
0.000428443
0.000208811
0.000609711
0.000473976
0.000108428
0.000341953
0.000730707
0.000935362
0.0011161
0.00114146
0.00135803
0.00153328
0.00155254
0.00134747
0.00124896
0.00143205
0.00105498
0.000896045
0.000239887
0.000183764
0.000829926
0.000404814
6.62809e-05
0.000446804
0.000706061
0.00111368
0.00127095
0.00145302
0.0014396
0.00168117
0.00181472
0.00174309
0.00156334
0.00142228
0.00143871
0.00103823
0.000878751
-1.00725e-06
0.000239531
0.00093015
0.000308206
7.72163e-05
0.000316038
0.00100409
0.00107813
0.0014698
0.00159126
0.00177402
0.00169547
0.0019404
0.00209303
0.00193605
0.00181899
0.00155576
0.00145009
0.00106711
0.000846129
-8.22557e-05
0.000310731
0.000758896
0.000287853
9.72535e-05
0.00036533
0.000759357
0.00145709
0.00155308
0.00180401
0.00188022
0.00188064
0.00189357
0.00221878
0.00236679
0.00216139
0.00205057
0.0016612
0.00142706
0.00105414
0.000806095
-2.25966e-05
0.000342603
0.000521086
0.000257757
0.000128997
0.000412643
0.000872836
0.00127248
0.00195095
0.00201208
0.00210101
0.00209034
0.00204157
0.00217954
0.00250059
0.00263993
0.00239094
0.00227423
0.00176499
0.00139258
0.00103643
0.000745008
3.85152e-05
0.000315781
0.000314951
0.000144583
0.00012075
0.000446652
0.000902396
0.00143098
0.00180287
0.00238289
0.00240173
0.00241061
0.00231188
0.00234663
0.00255353
0.00280673
0.00291137
0.00263569
0.00247956
0.00190513
0.00142768
0.00102298
0.000654125
3.40391e-05
0.000191532
3.01849e-05
-4.5542e-05
0.000153926
0.000417405
0.000893353
0.00131828
0.0020057
0.00226672
0.00276558
0.00267605
0.00253729
0.0025786
0.0026901
0.00293225
0.00312477
0.00318652
0.00288925
0.00269141
0.00209674
0.0014819
0.000969677
0.000486675
-8.73369e-05
-0.000144731
-0.000402114
-0.00026633
9.65158e-05
0.000467262
0.000883273
0.00125684
0.00180606
0.00251897
0.00263703
0.00307486
0.00297061
0.00269317
0.002902
0.00306269
0.00329846
0.00344766
0.0034658
0.00314525
0.00291445
0.00230216
0.00153297
0.000908426
0.000205975
-0.000270715
-0.000571008
-0.000781134
-0.00043219
-2.27078e-06
0.000356877
0.000930712
0.00132067
0.00168663
0.00225516
0.00285245
0.00299453
0.00328484
0.00330311
0.0030343
0.00330298
0.00341975
0.00365392
0.00377994
0.00374946
0.00340824
0.0031303
0.00246075
0.00155877
0.000839807
-9.76203e-05
-0.000381994
-0.000900257
-0.000927028
-0.000557479
8.98084e-05
0.000155561
0.000842721
0.00127454
0.00175084
0.00221242
0.00277777
0.00308193
0.00338012
0.00350464
0.00346775
0.00338455
0.00372819
0.00379021
0.00401374
0.00411125
0.00403882
0.00367341
0.00336442
0.00261077
0.00162982
0.000844501
-0.000287586
-0.000413093
-0.00104711
-0.000987031
-0.000734068
9.58486e-05
0.000255002
0.000534052
0.00126368
0.00168469
0.00216748
0.00276246
0.00330853
0.00336576
0.00372077
0.0037441
0.00371545
0.00377031
0.00410355
0.00419951
0.00439309
0.00445204
0.00433226
0.00394188
0.00358625
0.00276154
0.00180016
0.000891699
-0.000340736
-0.000375938
-0.00105373
-0.00119721
-0.0010089
8.47762e-05
0.000305284
0.0005729
0.00104402
0.00168827
0.002145
0.0026047
0.00322711
0.00366051
0.00367954
0.0040123
0.00394401
0.00411929
0.00414386
0.00447742
0.00465262
0.00477164
0.00478982
0.00463093
0.00421688
0.0038216
0.00292644
0.00201427
0.000989863
-0.000172091
-0.000278013
-0.00104992
-0.00140089
-0.00140953
0.000136445
0.000296397
0.000700487
0.00111178
0.00162691
0.00215533
0.00264211
0.00300024
0.00353331
0.00382793
0.0039195
0.00415513
0.00416851
0.00444172
0.0045095
0.00489022
0.00505593
0.00515538
0.00513732
0.00493391
0.00449376
0.00404997
0.00311812
0.00226915
0.00114263
7.93746e-07
-0.000198803
-0.00108378
-0.00154675
-0.00175747
0.00010534
0.000394711
0.000754662
0.00123525
0.00169718
0.00219161
0.00265843
0.00311156
0.00339796
0.00380591
0.00390835
0.00419167
0.00423577
0.00439888
0.00467802
0.00488929
0.00529057
0.00545981
0.00553766
0.00548181
0.00524127
0.00477706
0.00428283
0.00332539
0.00247632
0.00134905
0.000138867
-0.000184096
-0.00115211
-0.001704
-0.00197549
7.39125e-05
0.000353756
0.000846745
0.00128569
0.0018316
0.0022574
0.00268549
0.00315053
0.00358347
0.00380266
0.0041527
0.00414109
0.00452019
0.00454783
0.00466164
0.00496712
0.0053142
0.00572406
0.00587327
0.00592573
0.00583438
0.00555279
0.00506023
0.00451242
0.00353839
0.00264473
0.00151941
0.000262548
-0.000207715
-0.00121363
-0.00178978
-0.0021705
8.83149e-05
0.000308812
0.000789403
0.00134966
0.00177746
0.00235405
0.00272709
0.00319763
0.00360365
0.0040477
0.0043209
0.00455175
0.00451655
0.0047907
0.00492642
0.00498343
0.00539759
0.005789
0.00615913
0.00628193
0.00631233
0.00618557
0.00586789
0.0053473
0.00474488
0.00375441
0.0028059
0.00166258
0.000377423
-0.000209686
-0.00125767
-0.00176103
-0.00228189
8.28996e-05
0.000318436
0.000749207
0.00125753
0.00184543
0.00219732
0.00282295
0.00318832
0.00368995
0.0040067
0.00441668
0.00481784
0.00490758
0.00493386
0.00516613
0.00530068
0.00549895
0.00592935
0.00628878
0.00660656
0.00670124
0.00670396
0.00654279
0.00618648
0.00563383
0.00497828
0.00396842
0.00297332
0.00181245
0.000501579
-0.000209801
-0.0012947
-0.00170148
-0.00231894
6.07517e-05
0.000299131
0.000678535
0.00120804
0.0017327
0.00227867
0.00268426
0.00327597
0.0036675
0.0041021
0.00440187
0.00484892
0.00518779
0.00516234
0.00525784
0.0055945
0.00576141
0.00611412
0.00652082
0.00680123
0.00706524
0.00712711
0.00709793
0.00690005
0.00650817
0.0059228
0.00521471
0.0041844
0.00313649
0.00193192
0.000612576
-0.000195378
-0.0013201
-0.00181032
-0.00248788
6.44014e-05
0.000299806
0.000659244
0.00103617
0.00166354
0.00213045
0.00264511
0.00321501
0.00372183
0.00405473
0.0044812
0.00485673
0.00521036
0.0055535
0.0053453
0.00563114
0.00593473
0.0062625
0.00668701
0.00705687
0.00728648
0.00752532
0.00755678
0.00749351
0.00726207
0.00683267
0.00621167
0.00545345
0.004398
0.00330216
0.0020725
0.000729055
-0.000201365
-0.00135868
-0.00207583
-0.00275919
8.69279e-05
0.000306673
0.000693903
0.00101486
0.00145874
0.00211489
0.00256063
0.00308276
0.00371298
0.00404169
0.00439183
0.00491512
0.00524019
0.00552563
0.00568275
0.00562374
0.00606983
0.00629971
0.00673962
0.00717022
0.00754349
0.00778072
0.00798835
0.00799142
0.00789489
0.00762519
0.00715963
0.00650237
0.00569424
0.0046115
0.00346827
0.00219127
0.000828119
-0.000202712
-0.00140516
-0.00243357
-0.00310707
8.20153e-05
0.000319691
0.000690741
0.00102707
0.00145163
0.00195764
0.0025574
0.00307463
0.00367759
0.00418776
0.00440912
0.004783
0.00536227
0.00559223
0.00580727
0.00586843
0.00603373
0.00645003
0.0067614
0.00708708
0.0075757
0.00801991
0.00827044
0.00845423
0.00843185
0.00829626
0.00799185
0.00748904
0.00679333
0.00593708
0.004824
0.00362977
0.00231604
0.000928511
-0.00020223
-0.00146374
-0.00272162
-0.00353755
9.00435e-05
0.000281493
0.000682732
0.00108321
0.00140573
0.00195881
0.00245266
0.00309215
0.00369986
0.00427416
0.00469267
0.00489309
0.00526967
0.00575547
0.00595457
0.00614014
0.00627762
0.00646055
0.00690073
0.00720969
0.00749902
0.00798312
0.00850591
0.00876291
0.00892191
0.00887212
0.00870339
0.00836052
0.00782037
0.00708565
0.00618146
0.00503457
0.00379482
0.00243515
0.00101779
-0.000207952
-0.00152829
-0.00282169
-0.00385381
9.16577e-05
0.00029037
0.000623408
0.00104108
0.00142769
0.00188938
0.00244948
0.00302232
0.00370964
0.00437175
0.00490299
0.0052266
0.00539471
0.00572087
0.00611636
0.00629571
0.00642654
0.00665042
0.00694711
0.00743144
0.00768998
0.00804156
0.00848242
0.00901794
0.00926591
0.00939322
0.00931928
0.0091113
0.00873194
0.00815376
0.00737853
0.00642722
0.00524486
0.00395464
0.00255172
0.00110293
-0.00020389
-0.00158569
-0.00305551
-0.00414094
0.000105747
0.000306193
0.000615342
0.00100011
0.00144648
0.00184179
0.00238909
0.00302334
0.00367257
0.00436141
0.00497726
0.00533721
0.00549226
0.00567326
0.00608855
0.00645547
0.00657012
0.00666573
0.00704394
0.00748283
0.00789882
0.00819487
0.00864393
0.00907043
0.00954401
0.00976978
0.00986877
0.00976587
0.00952368
0.00910566
0.00848884
0.0076725
0.00667405
0.00545317
0.00411627
0.00266669
0.00118146
-0.000207203
-0.00164698
-0.00340359
-0.00453519
0.00011558
0.000319965
0.000619657
0.000987786
0.00142444
0.00188605
0.00238488
0.00292443
0.00366935
0.00435887
0.00490536
0.00535824
0.00562342
0.00571643
0.00600537
0.00647449
0.00680116
0.0068539
0.00708213
0.00748777
0.0079518
0.00841821
0.00880389
0.00930616
0.00968172
0.0100881
0.0102841
0.0103476
0.0102182
0.00993784
0.0094819
0.00882578
0.00796705
0.00692173
0.00566079
0.00427427
0.00277871
0.00125484
-0.000206307
-0.00170583
-0.00358352
-0.00489964
0.000115874
0.000346398
0.000627756
0.000952834
0.00138009
0.0018595
0.00239981
0.0029336
0.00353759
0.004281
0.00490717
0.0052977
0.00565878
0.0058577
0.00607463
0.00657122
0.0068829
0.00708533
0.00722732
0.00755419
0.00792936
0.00844415
0.00901394
0.00949026
0.0100115
0.0103017
0.010633
0.0108003
0.0108319
0.0106714
0.0103557
0.00986064
0.00916412
0.00826247
0.00716995
0.00586686
0.00443211
0.00288878
0.00132295
-0.000209516
-0.00176042
-0.00362457
-0.00510382
0.000100933
0.000363854
0.000622256
0.000958473
0.00135579
0.00181917
0.00235609
0.00292654
0.00348137
0.00416377
0.0048055
0.00527339
0.00567765
0.00594952
0.00619977
0.00645791
0.00695828
0.00717409
0.00735541
0.00764549
0.00801645
0.00849022
0.00902133
0.00953926
0.010095
0.0106504
0.0109037
0.0111894
0.0113249
0.0113194
0.0111292
0.0107761
0.0102416
0.00950406
0.0085584
0.00741863
0.00607185
0.00458754
0.00299652
0.00138648
-0.000211478
-0.00180873
-0.00362992
-0.00517985
9.1308e-05
0.000365489
0.000646227
0.000934753
0.0013494
0.00176507
0.00229711
0.00287835
0.00339663
0.00406336
0.00475517
0.00529846
0.00563549
0.00605997
0.0063061
0.00663678
0.00683248
0.00719615
0.00743644
0.00770926
0.00809368
0.00852889
0.00906548
0.00962661
0.0100178
0.0106337
0.0112294
0.011507
0.0117495
0.0118509
0.0118123
0.0115895
0.0111997
0.0106249
0.00984526
0.00885505
0.00766742
0.00627563
0.00474176
0.00310195
0.00144531
-0.000215671
-0.00185573
-0.00366582
-0.00521821
7.95801e-05
0.00035831
0.000653327
0.000935095
0.00130563
0.00172337
0.00220823
0.00275954
0.00336517
0.0038973
0.0046388
0.00528668
0.00575351
0.00606683
0.00643696
0.00671753
0.0069052
0.00718263
0.00753343
0.00777671
0.00816717
0.00857767
0.0091585
0.00968829
0.0102357
0.0106644
0.0112424
0.0118386
0.0121066
0.0123122
0.0123841
0.012309
0.0120535
0.011626
0.0110104
0.0101879
0.00915207
0.00791643
0.00647813
0.00489406
0.00320502
0.0015001
-0.000220237
-0.0019029
-0.0037044
-0.00522585
6.714e-05
0.000329035
0.000668658
0.0009281
0.00129742
0.0016718
0.00215163
0.00266733
0.00323849
0.00384111
0.00445782
0.0051566
0.00576388
0.0061104
0.00642778
0.00677622
0.00700955
0.00721886
0.00759763
0.00796149
0.00827377
0.00867706
0.00918753
0.00977421
0.010379
0.0108728
0.011453
0.011919
0.0124259
0.0127048
0.0128817
0.0129194
0.0128101
0.0125206
0.0120551
0.011398
0.0105316
0.00944976
0.0081652
0.0066795
0.00504466
0.00330566
0.0015507
-0.000226627
-0.00194859
-0.00374159
-0.0052222
6.39558e-05
0.000312978
0.000667796
0.000959777
0.00127788
0.00170196
0.00209664
0.00266554
0.00317158
0.00376592
0.00439916
0.00506239
0.00561355
0.00618343
0.00648724
0.00680705
0.00711417
0.00731362
0.00767119
0.00796978
0.00841618
0.00883503
0.00916023
0.0098169
0.0103747
0.0110267
0.0115458
0.0122909
0.0126119
0.0130499
0.0133076
0.0134521
0.0134598
0.013315
0.012991
0.012487
0.0117875
0.0108767
0.00974759
0.00841396
0.00687953
0.00519337
0.00340377
0.00159748
-0.000234107
-0.00199556
-0.00378753
-0.00520443
5.63113e-05
0.000305045
0.00067719
0.000974105
0.00129362
0.00169863
0.00212546
0.00260472
0.00316727
0.00375107
0.00435468
0.00503756
0.00565036
0.00613151
0.00658727
0.00683186
0.00718415
0.00748518
0.00774433
0.00806428
0.00839201
0.00894741
0.00937387
0.00972108
0.0103792
0.0110787
0.011718
0.012273
0.0130362
0.0132913
0.0136725
0.01391
0.0140284
0.0140031
0.0138237
0.0134646
0.0129213
0.0121792
0.0112226
0.010046
0.0086623
0.00707828
0.00534016
0.00349925
0.00164062
-0.000243543
-0.00204332
-0.00383505
-0.00523411
5.00299e-05
0.000291215
0.00067676
0.00100203
0.00130977
0.00169808
0.00211543
0.00259652
0.00312379
0.00369077
0.00432489
0.00502015
0.00564642
0.00620126
0.00664228
0.00693238
0.007187
0.00749313
0.00792246
0.00802185
0.00849707
0.00895986
0.0095637
0.0099676
0.0103608
0.0110047
0.0117127
0.0124187
0.0129864
0.0136382
0.0139641
0.014301
0.0145189
0.0146065
0.0145504
0.0143361
0.013941
0.0133581
0.0125722
0.0115697
0.0103445
0.00891025
0.00727566
0.00548496
0.0035921
0.00168019
-0.000254956
-0.00209243
-0.00388778
-0.00525039
4.76501e-05
0.000280954
0.000678917
0.00101723
0.00131852
0.00171764
0.00209452
0.00255722
0.00309556
0.00364075
0.00429812
0.00498858
0.00566788
0.00612073
0.00666328
0.00702495
0.00723723
0.00754091
0.00787815
0.00821251
0.00829423
0.00896197
0.00957
0.0100192
0.0105018
0.0110637
0.0117067
0.0123721
0.0131229
0.0137027
0.0142804
0.0146285
0.01494
0.0151287
0.0151892
0.0151011
0.0148516
0.0144203
0.0137968
0.0129672
0.0119176
0.0106431
0.00915768
0.00747167
0.00562767
0.00368225
0.00171613
-0.000268245
-0.00214346
-0.00394515
-0.00528654
4.88415e-05
0.000274963
0.000670523
0.00103462
0.00134373
0.00170325
0.00208268
0.00249852
0.0030411
0.00362168
0.0042346
0.00498146
0.00562393
0.00619725
0.00656697
0.00704055
0.00734876
0.00758464
0.00795505
0.00832919
0.00848281
0.00881509
0.00951807
0.0101111
0.0104351
0.0110672
0.0117371
0.0124846
0.0131855
0.0138437
0.0144192
0.0149437
0.0152956
0.0155771
0.0157441
0.015775
0.0156549
0.0153704
0.0149016
0.0142377
0.0133634
0.0122663
0.0109419
0.00940457
0.0076661
0.00576838
0.00376941
0.00174901
-0.00028387
-0.0021971
-0.00400656
-0.00532486
5.41684e-05
0.000276275
0.000662157
0.00103089
0.0013342
0.0016974
0.00206446
0.00246419
0.00297282
0.0035525
0.00419347
0.00488178
0.00560991
0.00614182
0.0066092
0.00698618
0.00739873
0.0077124
0.00807326
0.00848674
0.00873432
0.00901675
0.0094695
0.0101551
0.0106095
0.0110108
0.0117501
0.0124585
0.0133203
0.0139397
0.0145667
0.0151213
0.0156117
0.0159627
0.0162228
0.0163621
0.0163644
0.0162121
0.0158916
0.0153855
0.0146802
0.013761
0.0126158
0.0112408
0.00965057
0.00785919
0.00590669
0.00385402
0.00177852
-0.000302287
-0.00225324
-0.00407242
-0.00537356
6.2947e-05
0.000275129
0.000649937
0.00100265
0.0013195
0.00167641
0.00204283
0.00243657
0.00292177
0.00350151
0.00411731
0.00480055
0.00553726
0.0061395
0.00655151
0.00702214
0.00744325
0.00778042
0.0082063
0.00861282
0.00894399
0.00911342
0.00958156
0.0102057
0.0107343
0.0111539
0.0116957
0.0124831
0.013298
0.014131
0.0147002
0.0153001
0.015838
0.016298
0.0166336
0.0168701
0.0169843
0.0169574
0.0167717
0.0164157
0.0158713
0.0151244
0.01416
0.0129661
0.0115394
0.00989606
0.00805045
0.00604304
0.00393565
0.00180456
-0.000323363
-0.00231216
-0.00414238
-0.00542878
6.53411e-05
0.000284504
0.000627693
0.000971586
0.00129816
0.00165572
0.00202657
0.00243356
0.00289243
0.00346195
0.0040982
0.00473964
0.00548194
0.00615796
0.00662023
0.00700693
0.00751365
0.00791625
0.00830001
0.00874702
0.00900174
0.00930809
0.00959686
0.0102255
0.0108572
0.0112714
0.0118159
0.0124676
0.013318
0.0141499
0.0148554
0.0154563
0.01603
0.0165482
0.0169848
0.0173081
0.0175221
0.0176102
0.0175531
0.0173347
0.016942
0.016359
0.0155702
0.0145602
0.0133166
0.0118381
0.0101404
0.00824034
0.00617701
0.00401421
0.00182737
-0.00034724
-0.00237397
-0.00421683
-0.0054924
7.15364e-05
0.000284732
0.000613645
0.000960735
0.00127385
0.00165623
0.0020241
0.00243101
0.00287515
0.00342328
0.0040812
0.00472952
0.0054309
0.00614953
0.00672993
0.00714728
0.00755546
0.00800595
0.0084108
0.00883819
0.00915042
0.00931124
0.00963751
0.0102431
0.0108047
0.0114255
0.0119505
0.01258
0.0133516
0.014189
0.0149264
0.0155779
0.0161942
0.0167665
0.0172671
0.0176826
0.0179865
0.0181782
0.0182393
0.0181525
0.0179003
0.0174707
0.0168487
0.0160177
0.0149612
0.013668
0.0121364
0.0103841
0.00842841
0.00630857
0.00408975
0.00184702
-0.000374035
-0.00243901
-0.00429615
-0.00556339
8.08314e-05
0.000285448
0.000597198
0.000936306
0.00125236
0.00163939
0.00202046
0.00243013
0.00287212
0.0033978
0.00403082
0.00470652
0.00539842
0.00609447
0.00672664
0.00717968
0.00763436
0.00811036
0.00847513
0.00895049
0.0092079
0.00941523
0.00962967
0.0101941
0.0108773
0.011381
0.0120768
0.0126951
0.0134632
0.0142568
0.0150114
0.0156805
0.0163423
0.0169523
0.0175041
0.0179882
0.0183829
0.0186694
0.0188375
0.0188724
0.018755
0.0184685
0.018002
0.0173406
0.0164663
0.0153636
0.0140194
0.0124346
0.0106266
0.00861475
0.00643767
0.00416237
0.00186349
-0.000403977
-0.00250784
-0.00438021
-0.00564115
8.78063e-05
0.000291447
0.000585104
0.000899816
0.00122339
0.00160849
0.00200496
0.00241881
0.0028706
0.00335253
0.00402875
0.00467212
0.0053553
0.00605612
0.00669135
0.00717192
0.00763751
0.00814906
0.00857137
0.00899706
0.00933604
0.00954098
0.00979819
0.0101574
0.0108994
0.0115266
0.01206
0.0128231
0.0134334
0.0143867
0.0150999
0.0157712
0.0164523
0.0170988
0.0177023
0.0182467
0.018714
0.0190904
0.019356
0.0195013
0.0195088
0.0193605
0.0190399
0.018536
0.017834
0.016917
0.0157666
0.0143714
0.0127322
0.0108681
0.00879917
0.00656445
0.00423196
0.00187674
-0.000437583
-0.00258035
-0.00446841
-0.00572619
9.72032e-05
0.000291566
0.000578832
0.000868821
0.00120853
0.00158112
0.00196976
0.00241501
0.00284707
0.00334349
0.0039896
0.00467017
0.00531855
0.00600723
0.0066516
0.00718955
0.00764224
0.00817387
0.00864017
0.00901652
0.00938908
0.00968496
0.00993025
0.0103378
0.0109114
0.0116002
0.0122507
0.0127479
0.0135094
0.0142578
0.0152331
0.0158177
0.0165317
0.0172266
0.0178688
0.0184639
0.0189935
0.019445
0.0198013
0.0200473
0.0201686
0.0201486
0.0199694
0.0196143
0.019072
0.0183301
0.0173688
0.0161708
0.0147235
0.0130296
0.0111083
0.00898188
0.00668871
0.00429847
0.00188637
-0.000474741
-0.00265608
-0.00456152
-0.00581795
0.000106245
0.000286974
0.000559604
0.000836531
0.00118179
0.00155781
0.00195196
0.00239262
0.00284303
0.00333695
0.00396581
0.0046366
0.00529908
0.00595747
0.00660692
0.00716106
0.00765196
0.00818538
0.00868445
0.00909653
0.00946469
0.009783
0.0100826
0.0104098
0.0109421
0.0116055
0.0122723
0.0129077
0.0134674
0.0142575
0.0150915
0.0158429
0.0165638
0.0173117
0.0179993
0.0186427
0.0192276
0.0197448
0.0201796
0.0205179
0.0207427
0.0208397
0.0207922
0.0205818
0.0201913
0.0196114
0.0188279
0.0178223
0.0165755
0.015076
0.0133264
0.0113475
0.0091626
0.00681044
0.00436157
0.00189256
-0.000515055
-0.00273577
-0.00465919
-0.0059172
0.000112849
0.000281981
0.000540088
0.00080149
0.00115264
0.00153407
0.00194161
0.00237506
0.00284248
0.00334692
0.00394903
0.00460825
0.00526873
0.00592461
0.00657155
0.00715388
0.00766819
0.00819809
0.00871153
0.00911634
0.00949949
0.00990232
0.0101798
0.0105189
0.0109816
0.0116041
0.0122483
0.0129008
0.0135009
0.0142061
0.0150402
0.015835
0.0164936
0.0173489
0.0180922
0.0187886
0.0194213
0.0199969
0.0205008
0.0209196
0.0212387
0.0214421
0.021515
0.0214395
0.0211968
0.020772
0.0201532
0.0193283
0.0182772
0.0169814
0.0154285
0.0136227
0.0115853
0.00934139
0.00692936
0.00442141
0.00189571
-0.000559127
-0.00281916
-0.00476234
-0.00602325
0.000114462
0.000278001
0.000522579
0.000779802
0.00113155
0.00150009
0.00191975
0.00237942
0.00284381
0.00336243
0.00395119
0.00458943
0.00525618
0.00591799
0.00658
0.00716958
0.00770555
0.00821016
0.00873189
0.00915256
0.00950673
0.00990993
0.0102426
0.0105577
0.0110447
0.0115619
0.0121796
0.0128645
0.0135378
0.0141482
0.015014
0.0157561
0.0165522
0.0173336
0.0181433
0.0188937
0.0195769
0.0202068
0.0207714
0.0212615
0.0216641
0.021964
0.0221461
0.0221943
0.0220898
0.021816
0.0213554
0.020698
0.0198306
0.0187339
0.0173878
0.0157812
0.0139183
0.0118219
0.009518
0.00704554
0.00447827
0.00189538
-0.000606802
-0.00290712
-0.00487047
-0.00613553
0.000113895
0.000268449
0.000509997
0.000764679
0.00111712
0.00148764
0.00190192
0.00237151
0.00286161
0.00338086
0.00396158
0.00457506
0.0052624
0.00593358
0.00659639
0.00720634
0.00770748
0.00824213
0.00872506
0.00918351
0.00953928
0.00999366
0.0103272
0.0105863
0.0110941
0.0116082
0.0121687
0.0128047
0.0135686
0.0142921
0.0149574
0.015808
0.0165862
0.0173361
0.0181597
0.018966
0.0196952
0.0203773
0.0209968
0.0215505
0.0220274
0.0224131
0.0226942
0.0228545
0.0228769
0.0227445
0.022438
0.0219421
0.0212453
0.0203356
0.0191917
0.0177951
0.0161337
0.0142132
0.0120569
0.00969248
0.00715918
0.00453185
0.00189165
-0.000658794
-0.00299924
-0.00498318
-0.00625469
0.000112486
0.000257398
0.00050053
0.000751925
0.00110058
0.00147644
0.00188445
0.0023651
0.00286178
0.00339089
0.00396383
0.00457757
0.00525775
0.00592634
0.00659398
0.00721007
0.00771311
0.00820535
0.00872756
0.0092114
0.00958226
0.00999126
0.0104316
0.0106973
0.0111442
0.0116877
0.012212
0.0128267
0.013561
0.0143757
0.0151597
0.015798
0.0166008
0.0174674
0.0181637
0.0190047
0.0197795
0.0205104
0.0211815
0.021793
0.0223357
0.0227977
0.0231672
0.0234291
0.0235665
0.0235641
0.0234022
0.0230636
0.0225317
0.0217959
0.0208424
0.0196512
0.0182029
0.0164862
0.0145073
0.0122905
0.00986491
0.00727009
0.00458212
0.00188402
-0.000714786
-0.00309515
-0.00510126
-0.00638088
0.000111089
0.000243465
0.000485971
0.000743074
0.00109594
0.00146011
0.00186627
0.00234046
0.00285577
0.00337705
0.00396519
0.00457152
0.00524181
0.00592312
0.00657025
0.00718095
0.00772113
0.00818821
0.00871733
0.00922133
0.00962803
0.0100626
0.010497
0.0108025
0.0112232
0.011718
0.0122715
0.0128282
0.0136013
0.014407
0.0151767
0.0157965
0.0165916
0.0174146
0.0182899
0.0190431
0.0198411
0.0206128
0.0213289
0.0219929
0.0225949
0.023125
0.0235735
0.0239262
0.0241678
0.0242836
0.0242549
0.0240638
0.0236923
0.0231248
0.0223488
0.0213514
0.0201118
0.0186112
0.0168386
0.0148006
0.0125226
0.0100352
0.00737809
0.00462879
0.00187271
-0.000774397
-0.00319564
-0.00522497
-0.0065134
0.000107555
0.000233624
0.000472335
0.000742281
0.0010885
0.00145465
0.00185319
0.00233026
0.0028452
0.00336386
0.00395681
0.00456394
0.00521904
0.00589632
0.00656404
0.00714826
0.00769267
0.00820235
0.00873476
0.00920461
0.00965853
0.0101239
0.0106104
0.0108973
0.0113088
0.0117756
0.0123194
0.0129922
0.0136175
0.0145033
0.0152496
0.015887
0.0164799
0.0174705
0.0182732
0.0191139
0.0199164
0.0206927
0.0214453
0.0221558
0.0228108
0.0234018
0.0239205
0.0243544
0.0246893
0.024912
0.0250044
0.0249497
0.0247288
0.0243249
0.0237207
0.0229046
0.0218622
0.0205736
0.0190202
0.0171908
0.015093
0.0127532
0.0102031
0.00748307
0.00467194
0.00185809
-0.000838373
-0.00330095
-0.00535377
-0.00665184
0.000107417
0.000225995
0.00045895
0.000738388
0.00108757
0.00144347
0.00184553
0.00232132
0.00284641
0.00335923
0.00394907
0.00455878
0.00520026
0.00587423
0.00652148
0.00712069
0.00764989
0.00819539
0.00875855
0.00921417
0.0096822
0.0101529
0.0106471
0.0110152
0.0113125
0.0118152
0.0123933
0.0130386
0.0137724
0.0144957
0.0153702
0.0159617
0.0167254
0.0173954
0.0184056
0.0191283
0.019987
0.0207666
0.0215394
0.0222872
0.022988
0.0236334
0.024215
0.0247211
0.0251396
0.0254581
0.0256602
0.0257296
0.0256481
0.0253979
0.0249605
0.0243198
0.0234625
0.0223748
0.0210368
0.0194297
0.0175427
0.0153846
0.0129819
0.0103686
0.00758499
0.00471194
0.00183951
-0.000906899
-0.00341063
-0.00548735
-0.00679754
0.000104856
0.000223878
0.000448458
0.000725384
0.0010857
0.00144337
0.0018322
0.00231589
0.00283561
0.00335462
0.00393634
0.00455773
0.00518667
0.00585617
0.00648848
0.0070814
0.00761651
0.00814994
0.00874707
0.00922849
0.00967314
0.010194
0.0106687
0.0110877
0.0114051
0.0118877
0.0123895
0.0131207
0.0137905
0.0144892
0.0153256
0.0160394
0.0166682
0.0174646
0.0182759
0.0191785
0.0199902
0.0208065
0.0216169
0.0223932
0.0231328
0.023826
0.0244631
0.0250337
0.0255265
0.0259307
0.0262312
0.026413
0.0264588
0.0263511
0.0260704
0.0255997
0.0249216
0.0240229
0.0228896
0.0215012
0.0198395
0.0178945
0.0156748
0.0132091
0.0105317
0.00768415
0.00474823
0.00181683
-0.000979611
-0.00352439
-0.00562715
-0.00694943
0.000103141
0.00021869
0.000444447
0.000717835
0.00107575
0.00144655
0.00182652
0.00229912
0.0028183
0.00334228
0.00392845
0.0045601
0.00517468
0.00583431
0.0064654
0.0070514
0.00759987
0.00811248
0.00871624
0.00924108
0.00967318
0.010217
0.0107066
0.0111631
0.011545
0.0119248
0.012497
0.0131379
0.0138381
0.0144593
0.0151957
0.0160122
0.016623
0.0173732
0.0181661
0.0191393
0.0199585
0.020849
0.0216629
0.022477
0.0232506
0.0239847
0.0246703
0.025298
0.0258572
0.0263378
0.0267265
0.0270092
0.0271702
0.0271928
0.0270578
0.0267468
0.0262419
0.0255262
0.0245861
0.0234061
0.0219664
0.0202498
0.0182455
0.0159643
0.0134343
0.0106924
0.00778007
0.00478073
0.00179031
-0.00105618
-0.00364363
-0.00577218
-0.00710722
0.000100987
0.000215361
0.000435994
0.000711117
0.00107321
0.00143933
0.00182893
0.0022903
0.00280847
0.00332034
0.00391473
0.00455875
0.00519025
0.00582258
0.00644261
0.00702961
0.00759125
0.00812838
0.00869316
0.00925989
0.00969595
0.0102318
0.0107479
0.0112208
0.0116312
0.012015
0.0125334
0.0132362
0.0138569
0.0145311
0.0151325
0.0159296
0.0166509
0.0172723
0.0181699
0.0190745
0.0199896
0.0208424
0.0217037
0.0225384
0.0233444
0.0241144
0.0248425
0.0255206
0.0261383
0.026687
0.0271541
0.0275272
0.0277917
0.0279325
0.0279309
0.0277686
0.0274265
0.0268874
0.0261342
0.0251515
0.023924
0.0224329
0.0206601
0.0185965
0.0162524
0.0136578
0.0108505
0.00787273
0.0048096
0.00176029
-0.00113793
-0.00376742
-0.00592228
-0.00727157
9.90147e-05
0.000209545
0.000430652
0.000701931
0.00107027
0.00143751
0.00182523
0.00228741
0.00280753
0.00331014
0.00390823
0.00455975
0.00521044
0.00584281
0.00644367
0.00703028
0.00759204
0.00814237
0.00870511
0.0092465
0.00972764
0.0102469
0.0107851
0.0112784
0.0117
0.0120843
0.0125971
0.0132694
0.013894
0.0145312
0.0151548
0.015907
0.016664
0.0173794
0.0182007
0.019088
0.0199699
0.0208602
0.021723
0.0225884
0.023416
0.0242188
0.0249844
0.0257066
0.026376
0.0269849
0.0275219
0.0279756
0.0283328
0.0285797
0.0286991
0.0286734
0.0284831
0.0281099
0.0275367
0.026745
0.0257189
0.0244438
0.0228998
0.021071
0.0189468
0.0165393
0.0138792
0.0110059
0.00796213
0.0048352
0.00172558
-0.00122397
-0.00389566
-0.00607812
-0.007442
9.86283e-05
0.000203881
0.000423659
0.000697182
0.00106228
0.00143779
0.00182194
0.00228702
0.00280887
0.00331004
0.00389918
0.00457137
0.00521849
0.00585914
0.00644885
0.0070302
0.00759831
0.00814202
0.00869843
0.00925519
0.0097336
0.0102639
0.0108016
0.0113025
0.0117413
0.0121634
0.0126414
0.0133006
0.0139041
0.0144997
0.0151371
0.0158382
0.0166875
0.0174052
0.0182328
0.0191621
0.0199879
0.0208643
0.0217416
0.0226185
0.0234698
0.0243012
0.0250998
0.0258609
0.0265758
0.0272381
0.0278369
0.0283623
0.0288021
0.0291441
0.0293723
0.0294704
0.0294198
0.0292016
0.0287975
0.0281893
0.0273583
0.0262889
0.0249646
0.0233682
0.0214819
0.0192966
0.0168249
0.0140987
0.0111586
0.00804866
0.00485647
0.00168696
-0.00131425
-0.00402898
-0.00623936
-0.00761886
9.78118e-05
0.000200868
0.000413562
0.000691321
0.00105955
0.0014299
0.00182223
0.00228734
0.00281014
0.00330543
0.00388982
0.00457462
0.00522519
0.00586539
0.00645094
0.00701262
0.00758451
0.0081371
0.00869249
0.00924467
0.00977189
0.0102723
0.0108248
0.0113235
0.0117814
0.0122028
0.0126919
0.0132619
0.013939
0.0144814
0.0151204
0.0158505
0.0166331
0.0174639
0.0181774
0.0190431
0.0200128
0.0208742
0.0217497
0.0226387
0.02351
0.0243659
0.0251923
0.0259878
0.0267428
0.027452
0.0281056
0.0286944
0.0292079
0.0296346
0.0299602
0.0301698
0.030246
0.0301705
0.0299247
0.0294888
0.0288448
0.0279746
0.0268603
0.0254877
0.0238373
0.0218929