/*--------------------------------*- C++ -*----------------------------------*\
| =========                 |                                                 |
| \\      /  F ield         | OpenFOAM: The Open Source CFD Toolbox           |
|  \\    /   O peration     | Version:  2212                                  |
|   \\  /    A nd           | Website:  www.openfoam.com                      |
|    \\/     M anipulation  |                                                 |
\*---------------------------------------------------------------------------*/
FoamFile
{
    version     2.0;
    format      ascii;
    arch        "LSB;label=32;scalar=64";
    class       surfaceScalarField;
    location    "30";
    object      phi;
}
// * * * * * * * * * * * * * * * * * * * * * * * * * * * * * * * * * * * * * //

dimensions      [0 3 -1 0 0 0 0];

oriented        oriented;

internalField   nonuniform List<scalar> 
328790
(
4.15758e-06
-6.74595
8.54205e-06
-6.29128
4.26509e-06
-6.74595
1.64099e-05
-5.8673
8.88482e-06
-6.29129
4.69586e-06
-6.74596
1.97047e-05
-5.47166
1.69937e-05
-5.86731
9.88293e-06
-6.29129
5.47623e-06
-6.74596
2.21597e-05
-5.10294
2.05872e-05
-5.47166
1.88647e-05
-5.86732
1.10591e-05
-6.2913
6.5558e-06
-6.74597
2.63813e-05
-4.75884
2.32211e-05
-5.10294
2.346e-05
-5.47166
2.01613e-05
-5.86733
1.26043e-05
-6.2913
7.64297e-06
-6.74598
3.03424e-05
-4.43805
2.76499e-05
-4.75885
2.68955e-05
-5.10294
2.52581e-05
-5.47167
2.16888e-05
-5.86734
1.44152e-05
-6.29131
8.96232e-06
-6.74598
3.47055e-05
-4.13898
3.1831e-05
-4.43805
3.17916e-05
-4.75885
2.971e-05
-5.10295
2.75127e-05
-5.47168
2.28117e-05
-5.86735
1.61677e-05
-6.29132
1.02838e-05
-6.74599
3.64959e-05
-3.8599
3.59209e-05
-4.13899
3.60093e-05
-4.43806
3.45105e-05
-4.75886
3.28922e-05
-5.10295
2.94254e-05
-5.47168
2.37162e-05
-5.86735
1.81238e-05
-6.29133
1.14676e-05
-6.74601
3.57806e-05
-3.59964
3.72955e-05
-3.8599
3.87395e-05
-4.13899
3.74468e-05
-4.43806
3.84544e-05
-4.75886
3.56523e-05
-5.10296
3.13195e-05
-5.47169
2.4581e-05
-5.86736
1.97879e-05
-6.29133
1.25299e-05
-6.74602
3.6181e-05
-3.35708
3.66739e-05
-3.59964
3.91516e-05
-3.8599
3.97111e-05
-4.13899
4.09922e-05
-4.43806
4.13215e-05
-4.75887
3.85135e-05
-5.10297
3.31153e-05
-5.4717
2.55944e-05
-5.86737
2.1654e-05
-6.29134
1.33954e-05
-6.74603
3.69178e-05
-3.13074
3.71205e-05
-3.35708
3.93421e-05
-3.59964
4.02475e-05
-3.8599
4.16059e-05
-4.13899
4.32448e-05
-4.43807
4.4564e-05
-4.75888
4.06838e-05
-5.10297
3.47189e-05
-5.47171
2.67017e-05
-5.86737
2.32976e-05
-6.29135
1.42222e-05
-6.74605
3.81355e-05
-2.91971
3.7836e-05
-3.13074
3.98293e-05
-3.35708
4.06753e-05
-3.59964
4.21011e-05
-3.85991
4.29231e-05
-4.13899
4.6367e-05
-4.43807
4.66962e-05
-4.75888
4.26705e-05
-5.10298
3.59577e-05
-5.47172
2.81221e-05
-5.86738
2.46801e-05
-6.29136
1.49981e-05
-6.74606
3.68866e-05
-2.72289
3.91202e-05
-2.91971
4.00415e-05
-3.13074
4.10769e-05
-3.35709
4.28054e-05
-3.59964
4.36895e-05
-3.85991
4.53689e-05
-4.13899
4.85835e-05
-4.43807
4.86328e-05
-4.75889
4.42902e-05
-5.10299
3.73234e-05
-5.47173
2.93217e-05
-5.86738
2.63381e-05
-6.29138
1.56152e-05
-6.74608
3.52737e-05
-2.53937
3.80033e-05
-2.72289
4.07346e-05
-2.91971
4.08406e-05
-3.13074
4.32468e-05
-3.35709
4.44136e-05
-3.59964
4.60254e-05
-3.85991
4.73346e-05
-4.13899
5.09563e-05
-4.43807
5.01583e-05
-4.75889
4.57173e-05
-5.103
3.83008e-05
-5.47173
3.06515e-05
-5.86738
2.77633e-05
-6.29139
1.54163e-05
-6.74609
3.44923e-05
-2.36814
3.61746e-05
-2.53937
4.00073e-05
-2.72289
4.14996e-05
-2.91971
4.26037e-05
-3.13074
4.46373e-05
-3.35709
4.68063e-05
-3.59964
4.79322e-05
-3.85991
4.97324e-05
-4.13899
5.25461e-05
-4.43807
5.10769e-05
-4.7589
4.66207e-05
-5.10301
3.88323e-05
-5.47174
3.16817e-05
-5.86739
2.86871e-05
-6.2914
1.47855e-05
-6.74611
3.17585e-05
-2.20853
3.5697e-05
-2.36814
3.82832e-05
-2.53936
4.12447e-05
-2.72288
4.30206e-05
-2.91971
4.36861e-05
-3.13074
4.71123e-05
-3.35709
4.87446e-05
-3.59964
4.99745e-05
-3.85991
5.1432e-05
-4.13899
5.39816e-05
-4.43808
5.15279e-05
-4.7589
4.70448e-05
-5.10302
3.94972e-05
-5.47175
3.29585e-05
-5.86739
2.83778e-05
-6.29141
1.41788e-05
-6.74612
2.8775e-05
-2.05975
3.32974e-05
-2.20853
3.85221e-05
-2.36814
3.96533e-05
-2.53936
4.26265e-05
-2.72288
4.38392e-05
-2.91971
4.63855e-05
-3.13074
4.89481e-05
-3.35709
5.07194e-05
-3.59964
5.19283e-05
-3.85991
5.33153e-05
-4.13899
5.5095e-05
-4.43808
5.14012e-05
-4.75891
4.75128e-05
-5.10302
4.03555e-05
-5.47176
3.35781e-05
-5.8674
2.79372e-05
-6.29143
1.31409e-05
-6.74613
2.77171e-05
-1.92084
3.03789e-05
-2.05974
3.74913e-05
-2.20853
3.99553e-05
-2.36814
4.13199e-05
-2.53936
4.32138e-05
-2.72288
4.58725e-05
-2.91971
4.86111e-05
-3.13074
5.05026e-05
-3.35709
5.26217e-05
-3.59964
5.38313e-05
-3.85991
5.49304e-05
-4.13899
5.56655e-05
-4.43809
5.14298e-05
-4.75891
4.80943e-05
-5.10303
4.09649e-05
-5.47177
3.42386e-05
-5.8674
2.68468e-05
-6.29144
1.29562e-05
-6.74615
2.7009e-05
-1.79143
2.89291e-05
-1.92084
3.45505e-05
-2.05974
3.97838e-05
-2.20853
4.20839e-05
-2.36814
4.19889e-05
-2.53936
4.42877e-05
-2.72288
4.78924e-05
-2.91971
5.02208e-05
-3.13074
5.24865e-05
-3.35709
5.45329e-05
-3.59964
5.54172e-05
-3.85991
5.66315e-05
-4.13899
5.61104e-05
-4.43809
5.14213e-05
-4.75892
4.85608e-05
-5.10304
4.1802e-05
-5.47177
3.47306e-05
-5.86741
2.61867e-05
-6.29145
1.26317e-05
-6.74616
2.53072e-05
-1.67065
2.84945e-05
-1.79143
3.23025e-05
-1.92084
3.70614e-05
-2.05974
4.3426e-05
-2.20853
4.27838e-05
-2.36815
4.31287e-05
-2.53936
4.52758e-05
-2.72288
4.92627e-05
-2.91971
5.21127e-05
-3.13074
5.43182e-05
-3.35709
5.63188e-05
-3.59964
5.73055e-05
-3.85991
5.81551e-05
-4.13899
5.65069e-05
-4.4381
5.16176e-05
-4.75892
4.96237e-05
-5.10305
4.26099e-05
-5.47178
3.51375e-05
-5.86742
2.54118e-05
-6.29147
1.28352e-05
-6.74617
2.34342e-05
-1.55806
2.64187e-05
-1.67065
3.24085e-05
-1.79143
3.4191e-05
-1.92084
4.0676e-05
-2.05973
4.49819e-05
-2.20853
4.45105e-05
-2.36815
4.43173e-05
-2.53936
4.71e-05
-2.72288
5.10314e-05
-2.91971
5.41934e-05
-3.13074
5.64264e-05
-3.35709
5.80936e-05
-3.59964
5.91288e-05
-3.85991
5.94535e-05
-4.13899
5.67103e-05
-4.4381
5.25969e-05
-4.75892
5.01781e-05
-5.10305
4.32855e-05
-5.47179
3.55756e-05
-5.86743
2.49327e-05
-6.29148
1.29927e-05
-6.74619
2.14313e-05
-1.45303
2.45663e-05
-1.55806
2.90947e-05
-1.67064
3.46311e-05
-1.79143
3.66936e-05
-1.92083
4.23656e-05
-2.05973
4.67214e-05
-2.20853
4.52295e-05
-2.36815
4.60213e-05
-2.53936
4.8962e-05
-2.72288
5.31062e-05
-2.9197
5.60862e-05
-3.13074
5.8073e-05
-3.35709
5.98141e-05
-3.59964
6.07407e-05
-3.85991
6.08556e-05
-4.139
5.71901e-05
-4.4381
5.34962e-05
-4.75892
5.09269e-05
-5.10306
4.42028e-05
-5.4718
3.59988e-05
-5.86744
2.48786e-05
-6.29149
1.35446e-05
-6.7462
1.7713e-05
-1.35504
2.26408e-05
-1.45303
2.68737e-05
-1.55806
3.096e-05
-1.67064
3.74523e-05
-1.79143
3.81578e-05
-1.92083
4.4116e-05
-2.05973
4.68094e-05
-2.20853
4.56677e-05
-2.36815
4.74871e-05
-2.53936
5.08487e-05
-2.72287
5.52162e-05
-2.9197
5.7523e-05
-3.13074
5.99214e-05
-3.35709
6.16206e-05
-3.59965
6.26408e-05
-3.85991
6.17973e-05
-4.139
5.83204e-05
-4.43811
5.51605e-05
-4.75893
5.19566e-05
-5.10307
4.49615e-05
-5.47181
3.67318e-05
-5.86745
2.52694e-05
-6.2915
1.39459e-05
-6.74621
1.57391e-05
-1.26377
1.87914e-05
-1.35503
2.53935e-05
-1.45303
2.83414e-05
-1.55805
3.36286e-05
-1.67064
3.96109e-05
-1.79143
3.9714e-05
-1.92082
4.52165e-05
-2.05973
4.73223e-05
-2.20854
4.72124e-05
-2.36815
4.96166e-05
-2.53935
5.32816e-05
-2.72287
5.6851e-05
-2.9197
5.92826e-05
-3.13074
6.17273e-05
-3.35709
6.33697e-05
-3.59965
6.40491e-05
-3.85992
6.33899e-05
-4.13901
6.01009e-05
-4.43811
5.70946e-05
-4.75893
5.282e-05
-5.10308
4.61399e-05
-5.47182
3.74464e-05
-5.86747
2.61399e-05
-6.29152
1.42837e-05
-6.74623
1.63753e-05
-1.17869
1.69531e-05
-1.26376
2.19658e-05
-1.35503
2.6837e-05
-1.45302
3.05754e-05
-1.55805
3.59376e-05
-1.67063
4.12483e-05
-1.79143
4.13948e-05
-1.92082
4.56509e-05
-2.05973
4.75336e-05
-2.20854
4.90125e-05
-2.36815
5.15618e-05
-2.53935
5.56316e-05
-2.72287
5.83324e-05
-2.9197
6.10841e-05
-3.13074
6.35379e-05
-3.35709
6.50702e-05
-3.59965
6.58727e-05
-3.85992
6.49519e-05
-4.13901
6.19726e-05
-4.43812
5.89827e-05
-4.75894
5.40597e-05
-5.10309
4.74219e-05
-5.47183
3.89943e-05
-5.86748
2.69024e-05
-6.29153
1.46092e-05
-6.74624
1.51877e-05
-1.09919
1.70602e-05
-1.17869
1.94422e-05
-1.26376
2.43709e-05
-1.35503
2.87192e-05
-1.45302
3.21478e-05
-1.55805
3.83107e-05
-1.67063
4.19886e-05
-1.79143
4.27616e-05
-1.92082
4.62539e-05
-2.05972
4.73452e-05
-2.20854
5.05211e-05
-2.36815
5.38245e-05
-2.53935
5.74243e-05
-2.72287
6.00513e-05
-2.9197
6.30428e-05
-3.13074
6.52376e-05
-3.35709
6.68496e-05
-3.59965
6.73696e-05
-3.85992
6.65682e-05
-4.13902
6.39011e-05
-4.43812
6.12459e-05
-4.75895
5.54922e-05
-5.10309
4.9257e-05
-5.47184
4.01189e-05
-5.86749
2.75922e-05
-6.29154
1.49014e-05
-6.74626
1.26027e-05
-1.02499
1.61005e-05
-1.09919
1.9135e-05
-1.17869
2.29084e-05
-1.26376
2.70606e-05
-1.35503
3.08058e-05
-1.45302
3.36304e-05
-1.55804
3.97105e-05
-1.67063
4.16749e-05
-1.79143
4.44765e-05
-1.92082
4.66811e-05
-2.05972
4.81663e-05
-2.20853
5.1985e-05
-2.36814
5.58831e-05
-2.53935
5.94595e-05
-2.72287
6.19554e-05
-2.9197
6.47852e-05
-3.13074
6.70857e-05
-3.35709
6.84899e-05
-3.59965
6.91439e-05
-3.85992
6.81706e-05
-4.13902
6.62172e-05
-4.43813
6.28449e-05
-4.75895
5.74615e-05
-5.1031
5.09848e-05
-5.47185
4.10416e-05
-5.86751
2.83777e-05
-6.29155
1.54925e-05
-6.74627
1.11567e-05
-0.956085
1.32789e-05
-1.02499
1.87322e-05
-1.09918
2.24435e-05
-1.17869
2.67744e-05
-1.26376
2.98305e-05
-1.35503
3.27875e-05
-1.45302
3.49191e-05
-1.55804
3.96863e-05
-1.67063
4.19433e-05
-1.79143
4.57166e-05
-1.92081
4.72071e-05
-2.05972
4.97069e-05
-2.20853
5.36625e-05
-2.36814
5.81177e-05
-2.53935
6.11621e-05
-2.72287
6.38067e-05
-2.9197
6.65441e-05
-3.13074
6.87218e-05
-3.35709
7.02667e-05
-3.59965
7.08192e-05
-3.85993
6.98014e-05
-4.13902
6.77585e-05
-4.43813
6.46275e-05
-4.75896
5.90499e-05
-5.10311
5.20884e-05
-5.47186
4.21188e-05
-5.86752
2.9062e-05
-6.29157
1.59174e-05
-6.74629
9.67794e-06
-0.89148
1.17654e-05
-0.956083
1.47379e-05
-1.02498
2.1235e-05
-1.09918
2.50603e-05
-1.17868
2.98119e-05
-1.26376
3.32706e-05
-1.35503
3.509e-05
-1.45302
3.61543e-05
-1.55803
3.98217e-05
-1.67062
4.20154e-05
-1.79143
4.61046e-05
-1.92081
4.77032e-05
-2.05972
5.10576e-05
-2.20853
5.53721e-05
-2.36814
5.94233e-05
-2.53935
6.29614e-05
-2.72287
6.54185e-05
-2.9197
6.83356e-05
-3.13074
7.05456e-05
-3.35709
7.19904e-05
-3.59965
7.24364e-05
-3.85993
7.13796e-05
-4.13903
6.93813e-05
-4.43814
6.58245e-05
-4.75897
6.00906e-05
-5.10312
5.32097e-05
-5.47187
4.27177e-05
-5.86753
2.9683e-05
-6.29158
1.67761e-05
-6.74631
8.0382e-06
-0.831499
1.07092e-05
-0.891479
1.27505e-05
-0.956081
1.63715e-05
-1.02498
2.25082e-05
-1.09918
2.75046e-05
-1.17868
3.24124e-05
-1.26376
3.74447e-05
-1.35503
3.7339e-05
-1.45302
3.77441e-05
-1.55803
4.02696e-05
-1.67062
4.23669e-05
-1.79142
4.65235e-05
-1.92081
4.86721e-05
-2.05972
5.2602e-05
-2.20853
5.65404e-05
-2.36814
6.15127e-05
-2.53934
6.45261e-05
-2.72287
6.72711e-05
-2.9197
7.00115e-05
-3.13074
7.22743e-05
-3.35709
7.3629e-05
-3.59965
7.4037e-05
-3.85993
7.2953e-05
-4.13903
7.10386e-05
-4.43814
6.70693e-05
-4.75898
6.13615e-05
-5.10313
5.40111e-05
-5.47188
4.34689e-05
-5.86755
3.1036e-05
-6.2916
1.7594e-05
-6.74632
7.60987e-06
-0.775406
8.80542e-06
-0.831497
1.29518e-05
-0.891479
1.38692e-05
-0.956079
1.85083e-05
-1.02498
2.38292e-05
-1.09918
2.85125e-05
-1.17868
3.51246e-05
-1.26376
4.08764e-05
-1.35503
3.96838e-05
-1.45302
3.95201e-05
-1.55803
4.03251e-05
-1.67062
4.34456e-05
-1.79142
4.72863e-05
-1.92081
5.02803e-05
-2.05972
5.42586e-05
-2.20852
5.8516e-05
-2.36813
6.31076e-05
-2.53934
6.59055e-05
-2.72286
6.89303e-05
-2.9197
7.18624e-05
-3.13074
7.39445e-05
-3.35709
7.52599e-05
-3.59965
7.56866e-05
-3.85993
7.46809e-05
-4.13903
7.24699e-05
-4.43815
6.82462e-05
-4.75898
6.25286e-05
-5.10313
5.51105e-05
-5.47189
4.4511e-05
-5.86756
3.2064e-05
-6.29161
1.83441e-05
-6.74634
6.76995e-06
-0.72318
8.19288e-06
-0.775406
1.07449e-05
-0.831495
1.44289e-05
-0.891479
1.53871e-05
-0.956075
2.1079e-05
-1.02497
2.44507e-05
-1.09917
2.93846e-05
-1.17867
3.72288e-05
-1.26375
4.25122e-05
-1.35503
4.05231e-05
-1.45302
4.06604e-05
-1.55803
4.09438e-05
-1.67062
4.3902e-05
-1.79141
4.81648e-05
-1.92081
5.23979e-05
-2.05971
5.56513e-05
-2.20852
6.04843e-05
-2.36813
6.42939e-05
-2.53934
6.77233e-05
-2.72286
7.07382e-05
-2.91969
7.34484e-05
-3.13074
7.55776e-05
-3.35709
7.69502e-05
-3.59966
7.73853e-05
-3.85994
7.61141e-05
-4.13904
7.37585e-05
-4.43816
7.00141e-05
-4.75899
6.36694e-05
-5.10314
5.60278e-05
-5.4719
4.53679e-05
-5.86757
3.33055e-05
-6.29163
1.9272e-05
-6.74636
5.97747e-06
-0.674425
7.16908e-06
-0.723179
9.9179e-06
-0.775405
1.25602e-05
-0.831493
1.63805e-05
-0.89148
1.82462e-05
-0.956073
2.36122e-05
-1.02497
2.52347e-05
-1.09917
3.02087e-05
-1.17866
3.79961e-05
-1.26375
4.22223e-05
-1.35504
4.1021e-05
-1.45302
4.06277e-05
-1.55803
4.19424e-05
-1.67061
4.46189e-05
-1.79141
4.98509e-05
-1.92081
5.4101e-05
-2.05971
5.76284e-05
-2.20852
6.19322e-05
-2.36813
6.5929e-05
-2.53934
6.92763e-05
-2.72286
7.23559e-05
-2.91969
7.51237e-05
-3.13073
7.72957e-05
-3.35709
7.86914e-05
-3.59966
7.88807e-05
-3.85994
7.77679e-05
-4.13904
7.55337e-05
-4.43816
7.09988e-05
-4.759
6.49705e-05
-5.10315
5.71206e-05
-5.47192
4.64006e-05
-5.86759
3.46172e-05
-6.29164
1.94022e-05
-6.74638
6.48809e-06
-0.628976
6.26856e-06
-0.674425
8.53231e-06
-0.723177
1.23597e-05
-0.775405
1.54215e-05
-0.831492
1.8803e-05
-0.891481
2.17884e-05
-0.956071
2.47664e-05
-1.02497
2.61098e-05
-1.09917
3.10395e-05
-1.17866
3.8616e-05
-1.26374
4.129e-05
-1.35504
4.03671e-05
-1.45302
4.06264e-05
-1.55803
4.33404e-05
-1.67061
4.60811e-05
-1.79141
5.15145e-05
-1.9208
5.5327e-05
-2.05971
5.95112e-05
-2.20851
6.3325e-05
-2.36813
6.74213e-05
-2.53934
7.08925e-05
-2.72286
7.39751e-05
-2.91969
7.68222e-05
-3.13073
7.90409e-05
-3.35709
8.02266e-05
-3.59966
8.05616e-05
-3.85994
7.93361e-05
-4.13905
7.67467e-05
-4.43817
7.25085e-05
-4.759
6.60937e-05
-5.10316
5.80664e-05
-5.47193
4.71117e-05
-5.8676
3.52764e-05
-6.29166
1.98919e-05
-6.7464
6.31603e-06
-0.586588
7.11754e-06
-0.628976
7.27188e-06
-0.674423
1.00375e-05
-0.723175
1.55122e-05
-0.775405
1.76702e-05
-0.831491
1.99052e-05
-0.891479
2.40283e-05
-0.95607
2.56384e-05
-1.02497
2.71896e-05
-1.09916
3.22711e-05
-1.17865
3.83856e-05
-1.26374
4.00511e-05
-1.35504
4.02839e-05
-1.45302
4.09712e-05
-1.55803
4.42651e-05
-1.67061
4.808e-05
-1.7914
5.27606e-05
-1.9208
5.69667e-05
-2.05971
6.10952e-05
-2.20851
6.4848e-05
-2.36812
6.89786e-05
-2.53934
7.23516e-05
-2.72286
7.56831e-05
-2.91969
7.85653e-05
-3.13073
8.05998e-05
-3.35709
8.19573e-05
-3.59966
8.21417e-05
-3.85995
8.08378e-05
-4.13905
7.81985e-05
-4.43817
7.38247e-05
-4.75901
6.73302e-05
-5.10317
5.89796e-05
-5.47194
4.81788e-05
-5.86761
3.60006e-05
-6.29167
2.00797e-05
-6.74642
5.52231e-06
-0.547045
6.99804e-06
-0.586588
8.10691e-06
-0.628977
8.74631e-06
-0.674422
1.23884e-05
-0.723172
1.7865e-05
-0.775405
1.89796e-05
-0.83149
2.19337e-05
-0.891477
2.63753e-05
-0.956071
2.6133e-05
-1.02497
2.86533e-05
-1.09916
3.33195e-05
-1.17865
3.81499e-05
-1.26374
3.87873e-05
-1.35504
4.04092e-05
-1.45302
4.21041e-05
-1.55802
4.58067e-05
-1.67061
5.02201e-05
-1.7914
5.43071e-05
-1.9208
5.86902e-05
-2.05971
6.22699e-05
-2.20851
6.62241e-05
-2.36812
7.03216e-05
-2.53933
7.40447e-05
-2.72286
7.73886e-05
-2.91969
8.01289e-05
-3.13073
8.23404e-05
-3.35709
8.35745e-05
-3.59966
8.3694e-05
-3.85995
8.23631e-05
-4.13905
7.9795e-05
-4.43818
7.51366e-05
-4.75902
6.84559e-05
-5.10318
5.99481e-05
-5.47195
4.88057e-05
-5.86762
3.6509e-05
-6.29169
2.04892e-05
-6.74644
4.84743e-06
-0.510189
5.96055e-06
-0.547044
8.11686e-06
-0.586588
8.89063e-06
-0.628977
1.05406e-05
-0.67442
1.47049e-05
-0.723169
1.94378e-05
-0.775406
2.13604e-05
-0.831489
2.5579e-05
-0.891476
2.78311e-05
-0.956072
2.67639e-05
-1.02497
2.9775e-05
-1.09915
3.49617e-05
-1.17864
3.78293e-05
-1.26374
3.78078e-05
-1.35503
4.06994e-05
-1.45302
4.30025e-05
-1.55802
4.77522e-05
-1.67061
5.20245e-05
-1.7914
5.62109e-05
-1.9208
5.96195e-05
-2.0597
6.36521e-05
-2.20851
6.75222e-05
-2.36812
7.19599e-05
-2.53933
7.56836e-05
-2.72286
7.89439e-05
-2.91969
8.18591e-05
-3.13073
8.3979e-05
-3.35709
8.51745e-05
-3.59966
8.52496e-05
-3.85995
8.39842e-05
-4.13906
8.10679e-05
-4.43818
7.63938e-05
-4.75903
6.95504e-05
-5.10319
6.08966e-05
-5.47196
4.9859e-05
-5.86764
3.70351e-05
-6.29171
2.02003e-05
-6.74646
4.12964e-06
-0.475796
5.26648e-06
-0.510188
6.76026e-06
-0.547042
8.90915e-06
-0.586588
1.03085e-05
-0.628977
1.22746e-05
-0.674418
1.69545e-05
-0.723166
2.05655e-05
-0.775405
2.4259e-05
-0.831488
2.84675e-05
-0.891477
2.86831e-05
-0.956074
2.92352e-05
-1.02497
3.1034e-05
-1.09915
3.63799e-05
-1.17864
3.72461e-05
-1.26374
3.769e-05
-1.35503
4.10663e-05
-1.45302
4.43125e-05
-1.55802
4.93793e-05
-1.6706
5.42142e-05
-1.7914
5.76289e-05
-1.92079
6.10835e-05
-2.0597
6.46738e-05
-2.2085
6.91373e-05
-2.36811
7.35455e-05
-2.53933
7.7182e-05
-2.72285
8.06497e-05
-2.91969
8.35037e-05
-3.13073
8.55941e-05
-3.35709
8.67695e-05
-3.59966
8.69178e-05
-3.85995
8.54654e-05
-4.13906
8.25459e-05
-4.43819
7.76436e-05
-4.75904
7.08081e-05
-5.1032
6.18315e-05
-5.47197
5.05327e-05
-5.86765
3.72516e-05
-6.29172
2.0003e-05
-6.74648
3.69418e-06
-0.443728
4.25159e-06
-0.475795
6.13551e-06
-0.510187
7.40602e-06
-0.547041
9.38019e-06
-0.586587
1.16838e-05
-0.628977
1.4579e-05
-0.674415
1.86458e-05
-0.723164
2.14867e-05
-0.775402
2.71778e-05
-0.831487
3.00079e-05
-0.891478
2.95083e-05
-0.956075
2.98155e-05
-1.02497
3.27402e-05
-1.09915
3.61968e-05
-1.17864
3.64075e-05
-1.26374
3.8573e-05
-1.35503
4.11576e-05
-1.45302
4.56254e-05
-1.55801
5.05926e-05
-1.6706
5.59765e-05
-1.7914
5.90518e-05
-1.92079
6.18307e-05
-2.0597
6.61335e-05
-2.2085
7.08794e-05
-2.36811
7.50218e-05
-2.53933
7.88773e-05
-2.72285
8.22793e-05
-2.91969
8.51131e-05
-3.13073
8.72098e-05
-3.35709
8.8484e-05
-3.59967
8.84494e-05
-3.85996
8.69399e-05
-4.13907
8.38313e-05
-4.4382
7.89964e-05
-4.75904
7.18634e-05
-5.10321
6.27777e-05
-5.47199
5.13262e-05
-5.86767
3.69605e-05
-6.29174
1.99486e-05
-6.7465
3.37073e-06
-0.413829
3.73184e-06
-0.443727
4.92655e-06
-0.475794
6.92708e-06
-0.510187
8.19195e-06
-0.54704
1.03287e-05
-0.586585
1.30374e-05
-0.628975
1.68163e-05
-0.674414
1.96549e-05
-0.723162
2.29553e-05
-0.775398
2.8663e-05
-0.831485
2.99317e-05
-0.891479
2.85985e-05
-0.956073
3.00419e-05
-1.02496
3.32835e-05
-1.09914
3.55208e-05
-1.17864
3.63719e-05
-1.26373
3.91834e-05
-1.35502
4.18448e-05
-1.45301
4.65461e-05
-1.55801
5.19551e-05
-1.6706
5.6993e-05
-1.79139
6.01686e-05
-1.92079
6.29606e-05
-2.05969
6.81611e-05
-2.2085
7.22889e-05
-2.36811
7.66163e-05
-2.53933
8.04459e-05
-2.72285
8.38718e-05
-2.91968
8.67329e-05
-3.13073
8.8944e-05
-3.35709
9.00579e-05
-3.59967
8.99687e-05
-3.85996
8.83887e-05
-4.13907
8.53519e-05
-4.4382
8.0215e-05
-4.75905
7.30766e-05
-5.10322
6.36632e-05
-5.472
5.18336e-05
-5.86768
3.71454e-05
-6.29176
1.99672e-05
-6.74652
3.04726e-06
-0.385935
3.34775e-06
-0.413829
3.97715e-06
-0.443726
5.68974e-06
-0.475793
7.49231e-06
-0.510186
9.28452e-06
-0.547039
1.19891e-05
-0.586584
1.4494e-05
-0.628973
1.83873e-05
-0.674412
2.08833e-05
-0.72316
2.33399e-05
-0.775392
2.80423e-05
-0.831483
2.91896e-05
-0.891479
2.85806e-05
-0.956072
3.04209e-05
-1.02496
3.35343e-05
-1.09914
3.54892e-05
-1.17864
3.70338e-05
-1.26373
3.97808e-05
-1.35502
4.34683e-05
-1.45301
4.81497e-05
-1.55801
5.33417e-05
-1.67059
5.78086e-05
-1.79139
6.1052e-05
-1.92079
6.51452e-05
-2.05969
6.93625e-05
-2.2085
7.38607e-05
-2.36811
7.82063e-05
-2.53932
8.20321e-05
-2.72285
8.54775e-05
-2.91968
8.84657e-05
-3.13073
9.05398e-05
-3.35709
9.16197e-05
-3.59967
9.14744e-05
-3.85996
8.99663e-05
-4.13908
8.66574e-05
-4.43821
8.15431e-05
-4.75906
7.41219e-05
-5.10323
6.45027e-05
-5.47201
5.25486e-05
-5.8677
3.74854e-05
-6.29177
2.00315e-05
-6.74654
2.3429e-06
-0.359917
2.82087e-06
-0.385934
3.29341e-06
-0.413828
4.41559e-06
-0.443725
6.07122e-06
-0.475792
8.59245e-06
-0.510185
1.05298e-05
-0.547037
1.34483e-05
-0.586583
1.55405e-05
-0.62897
1.99248e-05
-0.674411
2.13443e-05
-0.723158
2.35924e-05
-0.775388
2.71538e-05
-0.831481
2.79113e-05
-0.891478
2.81735e-05
-0.95607
3.11633e-05
-1.02496
3.34799e-05
-1.09914
3.49227e-05
-1.17864
3.76649e-05
-1.26373
4.08128e-05
-1.35502
4.56996e-05
-1.45301
4.96836e-05
-1.558
5.443e-05
-1.67059
5.87202e-05
-1.79139
6.22677e-05
-1.92079
6.61794e-05
-2.05969
7.09569e-05
-2.20849
7.54782e-05
-2.3681
7.96881e-05
-2.53932
8.35952e-05
-2.72285
8.7195e-05
-2.91968
9.00656e-05
-3.13073
9.21229e-05
-3.35709
9.31687e-05
-3.59967
9.31095e-05
-3.85997
9.13882e-05
-4.13908
8.8123e-05
-4.43822
8.27343e-05
-4.75907
7.5174e-05
-5.10324
6.54499e-05
-5.47202
5.31588e-05
-5.86771
3.80799e-05
-6.29179
2.017e-05
-6.74656
2.26792e-06
-0.335672
1.91882e-06
-0.359916
2.65409e-06
-0.385933
3.46106e-06
-0.413827
4.83135e-06
-0.443724
7.24974e-06
-0.47579
9.77344e-06
-0.510185
1.16291e-05
-0.547035
1.47824e-05
-0.586582
1.71816e-05
-0.628967
2.11447e-05
-0.674411
2.15002e-05
-0.723156
2.40285e-05
-0.775385
2.58788e-05
-0.831479
2.67729e-05
-0.891477
2.82017e-05
-0.956067
3.10725e-05
-1.02496
3.31552e-05
-1.09914
3.50536e-05
-1.17863
3.85566e-05
-1.26373
4.30673e-05
-1.35502
4.74036e-05
-1.45301
5.12512e-05
-1.558
5.54968e-05
-1.67059
5.95888e-05
-1.79139
6.32342e-05
-1.92078
6.78374e-05
-2.05968
7.2529e-05
-2.20849
7.68881e-05
-2.3681
8.12627e-05
-2.53932
8.52945e-05
-2.72284
8.87833e-05
-2.91968
9.16514e-05
-3.13073
9.3695e-05
-3.35709
9.48498e-05
-3.59967
9.45915e-05
-3.85997
9.29406e-05
-4.13909
8.94215e-05
-4.43822
8.39097e-05
-4.75908
7.63139e-05
-5.10325
6.6278e-05
-5.47204
5.37672e-05
-5.86773
3.86152e-05
-6.29181
2.01978e-05
-6.74658
2.38615e-06
-0.313044
1.62758e-06
-0.335672
2.08183e-06
-0.359915
2.42691e-06
-0.385932
3.66548e-06
-0.413826
5.48051e-06
-0.443722
8.38147e-06
-0.475789
1.08294e-05
-0.510184
1.30828e-05
-0.547034
1.59161e-05
-0.586581
1.87453e-05
-0.628965
2.23148e-05
-0.674412
2.22121e-05
-0.723154
2.43357e-05
-0.775383
2.53703e-05
-0.831478
2.63494e-05
-0.891475
2.84693e-05
-0.956064
3.1901e-05
-1.02495
3.41588e-05
-1.09914
3.60433e-05
-1.17863
3.99231e-05
-1.26373
4.49929e-05
-1.35502
4.93177e-05
-1.453
5.22411e-05
-1.558
5.72252e-05
-1.67058
6.04615e-05
-1.79138
6.4946e-05
-1.92078
6.92471e-05
-2.05968
7.38465e-05
-2.20849
7.84809e-05
-2.3681
8.28839e-05
-2.53932
8.68531e-05
-2.72284
9.03584e-05
-2.91968
9.32286e-05
-3.13073
9.54006e-05
-3.35709
9.63764e-05
-3.59967
9.6208e-05
-3.85997
9.43372e-05
-4.13909
9.07147e-05
-4.43823
8.52008e-05
-4.75909
7.73297e-05
-5.10326
6.71028e-05
-5.47205
5.4561e-05
-5.86774
3.88192e-05
-6.29183
2.06315e-05
-6.7466
2.48321e-06
-0.291947
1.86412e-06
-0.313045
1.20824e-06
-0.335671
2.05109e-06
-0.359915
2.21638e-06
-0.385931
4.02614e-06
-0.413824
6.54378e-06
-0.44372
9.44839e-06
-0.475787
1.23177e-05
-0.510183
1.46199e-05
-0.547032
1.70569e-05
-0.58658
2.07653e-05
-0.628963
2.3371e-05
-0.674413
2.26613e-05
-0.723153
2.49056e-05
-0.775383
2.54901e-05
-0.831477
2.59978e-05
-0.891473
2.91152e-05
-0.956061
3.35436e-05
-1.02495
3.52105e-05
-1.09914
3.70636e-05
-1.17863
4.13231e-05
-1.26372
4.66892e-05
-1.35501
5.03549e-05
-1.453
5.39698e-05
-1.55799
5.80209e-05
-1.67058
6.17295e-05
-1.79138
6.61502e-05
-1.92078
7.07039e-05
-2.05968
7.5477e-05
-2.20848
8.00362e-05
-2.3681
8.44307e-05
-2.53931
8.84088e-05
-2.72284
9.19262e-05
-2.91968
9.49391e-05
-3.13073
9.6952e-05
-3.35709
9.80406e-05
-3.59968
9.76674e-05
-3.85998
9.57192e-05
-4.1391
9.21294e-05
-4.43824
8.63491e-05
-4.7591
7.83291e-05
-5.10327
6.8122e-05
-5.47206
5.50682e-05
-5.86776
3.94115e-05
-6.29185
2.06638e-05
-6.74662
2.62089e-06
-0.272265
1.9955e-06
-0.291947
1.29108e-06
-0.313045
1.13862e-06
-0.33567
1.76647e-06
-0.359915
3.08117e-06
-0.38593
5.04494e-06
-0.413823
8.20577e-06
-0.443719
1.0764e-05
-0.475786
1.37613e-05
-0.510182
1.62013e-05
-0.547031
1.83611e-05
-0.586577
2.2369e-05
-0.628962
2.30615e-05
-0.674414
2.3086e-05
-0.723151
2.49573e-05
-0.775382
2.54499e-05
-0.831476
2.64565e-05
-0.89147
2.96371e-05
-0.956057
3.47681e-05
-1.02495
3.61542e-05
-1.09914
3.86331e-05
-1.17863
4.28035e-05
-1.26372
4.77576e-05
-1.35501
5.12949e-05
-1.453
5.49305e-05
-1.55799
5.93145e-05
-1.67058
6.29116e-05
-1.79138
6.77544e-05
-1.92077
7.22229e-05
-2.05968
7.6911e-05
-2.20848
8.15766e-05
-2.36809
8.59376e-05
-2.53931
8.99532e-05
-2.72284
9.36265e-05
-2.91968
9.64976e-05
-3.13073
9.86429e-05
-3.35709
9.9546e-05
-3.59968
9.9113e-05
-3.85998
9.72349e-05
-4.1391
9.33933e-05
-4.43824
8.74848e-05
-4.75911
7.95587e-05
-5.10329
6.88175e-05
-5.47208
5.57588e-05
-5.86778
3.98048e-05
-6.29187
2.10374e-05
-6.74664
2.8522e-06
-0.253916
2.11532e-06
-0.272265
9.22747e-07
-0.291947
1.19479e-06
-0.313045
1.12753e-06
-0.335669
2.61898e-06
-0.359914
4.13911e-06
-0.385929
6.66981e-06
-0.413821
9.94125e-06
-0.443718
1.22481e-05
-0.475784
1.45529e-05
-0.510181
1.80716e-05
-0.547031
1.97202e-05
-0.586574
2.20293e-05
-0.628961
2.25002e-05
-0.674413
2.35814e-05
-0.72315
2.49997e-05
-0.775382
2.55135e-05
-0.831476
2.68534e-05
-0.891467
3.06242e-05
-0.956053
3.53138e-05
-1.02495
3.77958e-05
-1.09913
4.02447e-05
-1.17862
4.42814e-05
-1.26371
4.84088e-05
-1.35501
5.18597e-05
-1.453
5.62746e-05
-1.55799
6.06481e-05
-1.67058
6.42327e-05
-1.79137
6.89783e-05
-1.92077
7.36887e-05
-2.05967
7.84769e-05
-2.20848
8.30368e-05
-2.36809
8.7457e-05
-2.53931
9.16311e-05
-2.72284
9.51781e-05
-2.91968
9.81959e-05
-3.13073
0.000100175
-3.3571
0.000101038
-3.59968
0.000100699
-3.85998
9.85905e-05
-4.13911
9.46438e-05
-4.43825
8.88784e-05
-4.75911
8.04065e-05
-5.1033
6.97143e-05
-5.47209
5.6432e-05
-5.86779
4.0234e-05
-6.29189
2.12637e-05
-6.74666
2.98274e-06
-0.236799
2.36984e-06
-0.253916
1.2135e-06
-0.272265
9.04491e-07
-0.291946
1.12795e-06
-0.313045
1.70597e-06
-0.335668
3.82367e-06
-0.359914
5.53774e-06
-0.385928
7.94664e-06
-0.413819
1.14099e-05
-0.443717
1.34641e-05
-0.475783
1.59616e-05
-0.510179
1.99018e-05
-0.547031
2.06318e-05
-0.586573
2.15784e-05
-0.62896
2.21286e-05
-0.674411
2.39743e-05
-0.723149
2.59941e-05
-0.775382
2.52154e-05
-0.831474
2.79674e-05
-0.891465
3.14162e-05
-0.956049
3.5513e-05
-1.02495
3.91555e-05
-1.09913
4.16776e-05
-1.17862
4.57796e-05
-1.26371
4.88925e-05
-1.355
5.30455e-05
-1.45299
5.73465e-05
-1.55798
6.15893e-05
-1.67057
6.5643e-05
-1.79137
7.05212e-05
-1.92077
7.5164e-05
-2.05967
7.98529e-05
-2.20847
8.45329e-05
-2.36809
8.90953e-05
-2.53931
9.31628e-05
-2.72283
9.68686e-05
-2.91967
9.97373e-05
-3.13073
0.000101695
-3.3571
0.000102675
-3.59968
0.000102122
-3.85999
9.99336e-05
-4.13911
9.6175e-05
-4.43826
8.98482e-05
-4.75912
8.14884e-05
-5.10331
7.06026e-05
-5.47211
5.70198e-05
-5.86781
4.06808e-05
-6.29191
2.14672e-05
-6.74669
3.28978e-06
-0.220844
2.44737e-06
-0.236799
1.7168e-06
-0.253917
1.21207e-06
-0.272265
1.39322e-06
-0.291946
1.27474e-06
-0.313044
2.68164e-06
-0.335667
4.55657e-06
-0.359913
6.54098e-06
-0.385927
9.37294e-06
-0.413817
1.26833e-05
-0.443716
1.47e-05
-0.475782
1.72902e-05
-0.510176
2.06796e-05
-0.547031
2.11202e-05
-0.586573
2.12975e-05
-0.628959
2.19195e-05
-0.674409
2.44786e-05
-0.723147
2.66912e-05
-0.775384
2.60354e-05
-0.831472
2.87294e-05
-0.891462
3.22467e-05
-0.956046
3.58743e-05
-1.02495
4.02082e-05
-1.09913
4.3094e-05
-1.17862
4.6571e-05
-1.26371
4.95045e-05
-1.355
5.41216e-05
-1.45299
5.81352e-05
-1.55798
6.28534e-05
-1.67057
6.70313e-05
-1.79137
7.17406e-05
-1.92076
7.65304e-05
-2.05967
8.13343e-05
-2.20847
8.61282e-05
-2.36808
9.05986e-05
-2.5393
9.48323e-05
-2.72283
9.84052e-05
-2.91967
0.000101268
-3.13073
0.000103362
-3.3571
0.000104146
-3.59968
0.000103533
-3.85999
0.000101574
-4.13912
9.72484e-05
-4.43827
9.10809e-05
-4.75913
8.25597e-05
-5.10332
7.13742e-05
-5.47212
5.76874e-05
-5.86783
4.10705e-05
-6.29193
2.17474e-05
-6.74671
3.5802e-06
-0.205965
3.00082e-06
-0.220845
1.93114e-06
-0.236799
1.57573e-06
-0.253917
1.35993e-06
-0.272265
1.52079e-06
-0.291947
1.81582e-06
-0.313043
3.27127e-06
-0.335666
5.34659e-06
-0.359912
7.44815e-06
-0.385925
1.0889e-05
-0.413815
1.35729e-05
-0.443715
1.58316e-05
-0.475781
1.7657e-05
-0.510173
1.98997e-05
-0.54703
2.06922e-05
-0.586572
2.07893e-05
-0.628958
2.24905e-05
-0.674407
2.50359e-05
-0.723145
2.63614e-05
-0.775384
2.69206e-05
-0.83147
2.9085e-05
-0.891459
3.31643e-05
-0.956043
3.66262e-05
-1.02494
4.07371e-05
-1.09913
4.40092e-05
-1.17862
4.67911e-05
-1.26371
5.05502e-05
-1.355
5.48468e-05
-1.45299
5.93774e-05
-1.55798
6.39107e-05
-1.67057
6.83212e-05
-1.79136
7.31701e-05
-1.92076
7.79366e-05
-2.05966
8.28699e-05
-2.20847
8.76006e-05
-2.36808
9.22337e-05
-2.5393
9.63515e-05
-2.72283
9.9932e-05
-2.91967
0.000102945
-3.13073
0.000104862
-3.3571
0.000105607
-3.59969
0.000105254
-3.85999
0.000102733
-4.13912
9.86077e-05
-4.43827
9.23038e-05
-4.75914
8.34934e-05
-5.10333
7.22485e-05
-5.47214
5.82588e-05
-5.86784
4.15869e-05
-6.29195
2.1907e-05
-6.74673
3.8102e-06
-0.192077
3.52854e-06
-0.205965
2.29218e-06
-0.220845
2.07082e-06
-0.2368
1.74934e-06
-0.253918
1.30745e-06
-0.272265
1.47408e-06
-0.291946
2.48733e-06
-0.313043
3.70621e-06
-0.335664
6.36064e-06
-0.359911
8.65413e-06
-0.385922
1.21266e-05
-0.413814
1.41749e-05
-0.443714
1.69789e-05
-0.47578
1.75407e-05
-0.510171
1.93222e-05
-0.547029
2.01596e-05
-0.586571
2.0432e-05
-0.628956
2.31304e-05
-0.674406
2.47864e-05
-0.723144
2.68669e-05
-0.775384
2.81141e-05
-0.831469
3.05944e-05
-0.891456
3.45555e-05
-0.956041
3.72695e-05
-1.02494
4.1321e-05
-1.09913
4.49929e-05
-1.17861
4.74097e-05
-1.2637
5.14229e-05
-1.35499
5.61926e-05
-1.45298
6.05651e-05
-1.55797
6.51691e-05
-1.67057
6.9672e-05
-1.79136
7.44215e-05
-1.92076
7.94353e-05
-2.05966
8.43057e-05
-2.20846
8.91956e-05
-2.36808
9.3725e-05
-2.5393
9.78621e-05
-2.72283
0.000101605
-2.91967
0.000104459
-3.13073
0.000106354
-3.3571
0.000107385
-3.59969
0.000106477
-3.86
0.000104194
-4.13913
9.99577e-05
-4.43828
9.33741e-05
-4.75915
8.45467e-05
-5.10334
7.29995e-05
-5.47215
5.90124e-05
-5.86786
4.18911e-05
-6.29197
2.21766e-05
-6.74675
3.76026e-06
-0.179137
3.85895e-06
-0.192077
3.03112e-06
-0.205966
1.84856e-06
-0.220845
2.07808e-06
-0.2368