/*--------------------------------*- C++ -*----------------------------------*\
| =========                 |                                                 |
| \\      /  F ield         | OpenFOAM: The Open Source CFD Toolbox           |
|  \\    /   O peration     | Version:  2212                                  |
|   \\  /    A nd           | Website:  www.openfoam.com                      |
|    \\/     M anipulation  |                                                 |
\*---------------------------------------------------------------------------*/
FoamFile
{
    version     2.0;
    format      ascii;
    arch        "LSB;label=32;scalar=64";
    class       volScalarField;
    location    "20";
    object      nut;
}
// * * * * * * * * * * * * * * * * * * * * * * * * * * * * * * * * * * * * * //

dimensions      [0 2 -1 0 0 0 0];

internalField   nonuniform List<scalar> 
165000
(
1.55562e-13
2.22793e-12
1.57062e-13
1.31416e-12
3.29028e-12
1.55823e-13
7.43271e-13
1.13206e-12
1.51541e-12
1.60011e-13
8.7384e-13
5.7419e-13
9.17513e-13
1.54667e-12
1.58185e-13
7.93506e-13
7.65146e-13
6.10039e-13
8.77184e-13
1.61964e-12
1.56813e-13
6.41039e-13
6.22795e-13
6.11068e-13
5.39339e-13
8.21368e-13
1.21308e-12
1.6092e-13
5.48236e-13
5.78403e-13
6.73573e-13
5.50177e-13
4.97078e-13
7.80462e-13
1.45774e-12
1.60269e-13
4.94297e-13
4.28895e-13
4.55567e-13
5.80542e-13
4.72937e-13
4.47088e-13
7.54565e-13
9.03271e-13
1.59098e-13
5.26154e-13
3.36506e-13
3.77726e-13
3.65563e-13
4.37361e-13
4.37043e-13
3.90214e-13
5.68768e-13
6.54173e-13
1.5534e-13
5.07049e-13
3.97471e-13
2.76259e-13
3.35997e-13
3.67701e-13
3.8192e-13
4.35403e-13
3.96774e-13
4.63518e-13
4.40226e-13
1.4686e-13
5.00251e-13
4.27367e-13
4.04854e-13
3.11207e-13
2.93763e-13
4.29013e-13
3.13625e-13
4.27779e-13
5.35323e-13
4.75388e-13
4.31503e-13
1.43117e-13
5.69306e-13
3.49706e-13
4.18045e-13
4.09102e-13
3.92431e-13
2.9682e-13
4.10837e-13
2.68119e-13
3.50815e-13
5.37929e-13
5.38424e-13
6.85778e-13
1.42482e-13
5.72482e-13
4.00434e-13
3.6612e-13
4.02843e-13
3.60724e-13
4.93281e-13
3.19612e-13
2.97749e-13
3.04388e-13
3.5863e-13
5.11597e-13
5.45439e-13
4.5446e-13
1.24194e-13
5.17192e-13
3.81699e-13
3.70594e-13
4.0677e-13
3.52074e-13
4.02195e-13
5.53304e-13
4.49585e-13
2.54671e-13
3.69908e-13
4.24521e-13
4.63723e-13
5.52785e-13
3.23191e-13
1.31238e-13
5.61433e-13
3.57613e-13
3.08978e-13
3.87239e-13
4.38511e-13
3.23302e-13
4.60345e-13
4.86473e-13
4.12657e-13
2.58752e-13
3.58767e-13
3.59958e-13
5.93896e-13
5.4843e-13
4.49321e-13
1.35307e-13
5.56952e-13
4.10785e-13
3.48944e-13
3.51269e-13
4.00786e-13
4.84639e-13
3.87972e-13
3.95383e-13
4.20024e-13
3.34617e-13
3.15588e-13
3.82985e-13
3.0522e-13
4.17448e-13
5.5758e-13
4.84587e-13
1.34479e-13
5.66112e-13
4.14788e-13
3.79758e-13
3.92785e-13
3.86003e-13
6.11654e-13
3.68404e-13
4.10786e-13
4.34944e-13
3.95118e-13
3.21912e-13
3.77824e-13
3.94974e-13
3.55998e-13
5.22439e-13
4.55132e-13
4.55923e-13
1.35574e-13
3.54812e-13
4.53267e-13
3.65619e-13
3.21869e-13
3.73569e-13
4.79763e-13
6.87462e-13
3.61916e-13
3.95824e-13
4.0679e-13
3.19868e-13
3.45268e-13
3.38572e-13
4.17741e-13
4.04061e-13
4.91376e-13
4.06103e-13
4.45214e-13
1.33197e-13
1.02374e-12
2.75e-13
3.74833e-13
3.82323e-13
2.92312e-13
3.08181e-13
5.70763e-13
5.54861e-13
3.53658e-13
3.88618e-13
3.53324e-13
3.055e-13
3.59839e-13
4.06582e-13
4.78215e-13
5.88755e-13
4.83964e-13
4.00216e-13
4.86087e-13
1.32264e-13
5.55318e-13
7.21035e-13
2.67514e-13
4.28793e-13
4.38553e-13
2.96889e-13
3.06e-13
5.58171e-13
3.71965e-13
3.14552e-13
3.85522e-13
3.60381e-13
3.75211e-13
3.80808e-13
5.41619e-13
5.54723e-13
6.93484e-13
5.74148e-13
7.7023e-13
6.30779e-13
1.28243e-13
3.69788e-13
3.86066e-13
6.71382e-13
2.82867e-13
3.55874e-13
4.1071e-13
3.1901e-13
3.78967e-13
5.56877e-13
3.71562e-13
3.4421e-13
3.68292e-13
3.50538e-13
3.5595e-13
4.04838e-13
5.73556e-13
5.52919e-13
6.15907e-13
2.88643e-13
1.31494e-12
2.85441e-13
1.38649e-13
4.93821e-13
2.99099e-13
1.32926e-12
4.94372e-13
2.70098e-13
3.01632e-13
3.9202e-13
3.82052e-13
6.02121e-13
5.05968e-13
3.48708e-13
3.91503e-13
3.74638e-13
3.6128e-13
3.74577e-13
4.77746e-13
5.78406e-13
5.51972e-13
5.71007e-13
3.11619e-13
1.28986e-12
2.25973e-13
1.35674e-13
5.61297e-13
3.62824e-13
2.62467e-13
1.9921e-12
4.64778e-13
2.89406e-13
3.40506e-13
4.35976e-13
5.04754e-13
4.36916e-13
3.97901e-13
3.22841e-13
3.77185e-13
3.66688e-13
3.63379e-13
3.82923e-13
5.0985e-13
1.00362e-12
5.78436e-13
3.21027e-13
5.60251e-13
7.5324e-13
3.30495e-13
1.29936e-13
4.65452e-13
6.78875e-13
2.45773e-13
2.30402e-13
5.46365e-13
3.39188e-13
2.86209e-13
3.52274e-13
4.94931e-13
4.49626e-13
4.26185e-13
3.96026e-13
3.59845e-13
3.74962e-13
3.6762e-13
3.61161e-13
3.89289e-13
4.97793e-13
1.09023e-12
4.81204e-13
2.81655e-13
5.19499e-13
8.60603e-13
3.01298e-13
1.22162e-13
4.31762e-13
4.67166e-13
4.53055e-13
3.02174e-13
2.29035e-13
4.80773e-13
3.35368e-13
2.9907e-13
3.72479e-13
4.84759e-13
4.08837e-13
4.49999e-13
3.58965e-13
3.97215e-13
3.75381e-13
3.62679e-13
3.65994e-13
3.90701e-13
4.48223e-13
5.18587e-13
5.42717e-13
4.73096e-13
4.71122e-13
8.95051e-13
4.26115e-13
1.21548e-13
4.77907e-13
2.80061e-13
6.38974e-13
3.30791e-13
2.88536e-13
2.59185e-13
6.4636e-13
3.61826e-13
4.01248e-13
3.63895e-13
4.33185e-13
4.2557e-13
3.78756e-13
3.1594e-13
3.70269e-13
3.66129e-13
3.61031e-13
3.60805e-13
3.87758e-13
4.52589e-13
3.43514e-13
5.63076e-13
5.08763e-13
4.68243e-13
3.6964e-13
5.17557e-13
1.1088e-13
5.65549e-13
7.26412e-13
3.56753e-13
3.58435e-13
3.19112e-13
2.89695e-13
2.47887e-13
4.13934e-13
3.31332e-13
2.68722e-13
3.71912e-13
4.57363e-13
3.81513e-13
3.26915e-13
3.10761e-13
3.78108e-13
3.66684e-13
3.56767e-13
3.60584e-13
3.81791e-13
3.99902e-13
4.08753e-13
5.75136e-13
4.75579e-13
4.41075e-13
3.80686e-13
7.10469e-13
1.08969e-13
4.54978e-13
5.42295e-13
1.04047e-12
3.73966e-13
4.04166e-13
5.00632e-13
2.16161e-13
2.35667e-13
3.89228e-13
2.7445e-13
2.73111e-13
5.70268e-13
4.48444e-13
4.81958e-13
3.3772e-13
3.69546e-13
3.53699e-13
3.56282e-13
3.54048e-13
3.55732e-13
3.72896e-13
3.70456e-13
2.71e-13
3.02765e-13
4.39372e-13
4.61667e-13
4.05194e-13
4.69792e-13
1.25604e-13
2.92304e-13
5.50958e-13
7.03879e-13
1.0053e-12
3.31477e-13
4.1276e-13
4.82742e-13
1.73053e-13
2.29813e-13
3.30214e-13
3.25179e-13
2.66976e-13
6.34489e-13
4.26785e-13
4.11508e-13
3.33759e-13
3.46594e-13
3.49325e-13
3.5571e-13
3.50071e-13
3.51637e-13
3.61376e-13
3.25924e-13
2.51427e-13
2.23445e-13
3.21864e-13
3.32707e-13
3.48122e-13
6.61981e-13
1.09033e-13
5.08898e-13
2.70237e-13
3.51094e-13
4.32352e-13
1.11227e-12
4.08436e-13
5.35974e-13
2.94764e-13
1.62137e-13
2.48009e-13
3.69062e-13
6.16857e-13
2.8748e-13
6.05552e-13
4.49547e-13
3.51687e-13
3.55731e-13
3.5231e-13
3.48023e-13
3.4855e-13
3.46257e-13
3.45521e-13
3.47999e-13
3.1267e-13
2.69651e-13
2.87391e-13
2.87417e-13
3.78778e-13
3.26856e-13
2.97059e-13
1.02866e-13
5.12532e-13
7.49779e-13
1.76421e-13
2.06545e-13
3.57406e-13
6.22121e-13
7.85526e-13
6.38422e-13
2.81524e-13
2.01836e-13
2.65419e-13
5.02262e-13
1.27543e-12
4.66187e-13
9.5123e-13
3.41974e-13
3.65033e-13
3.29161e-13
3.52039e-13
3.42618e-13
3.46076e-13
3.41366e-13
3.39985e-13
3.37491e-13
3.05545e-13
2.62793e-13
3.34288e-13
3.00111e-13
3.71704e-13
3.77906e-13
1.90091e-13
1.12898e-13
1.42611e-12
4.36846e-13
1.33804e-12
2.74925e-13
1.91158e-13
2.82402e-13
2.80795e-13
5.61299e-13
4.27635e-13
4.20092e-13
2.02592e-13
2.67417e-13
4.13819e-13
4.95263e-13
4.56033e-13
9.26201e-13
3.29857e-13
3.7116e-13
3.29319e-13
3.48093e-13
3.43608e-13
3.40298e-13
3.36847e-13
3.34938e-13
3.30294e-13
3.10729e-13
3.01401e-13
3.43479e-13
3.73858e-13
3.67382e-13
3.95374e-13
2.91877e-13
1.05687e-13
2.02888e-13
4.38602e-13
2.58068e-12
4.4368e-13
3.58017e-13
1.8377e-13
2.00684e-13
2.88968e-13
4.51326e-13
6.2542e-13
8.79267e-13
2.04755e-13
2.21892e-13
5.67461e-13
3.80001e-13
7.46845e-13
5.46713e-13
3.26455e-13
3.24211e-13
3.6283e-13
3.50404e-13
3.38006e-13
3.36422e-13
3.32646e-13
3.3002e-13
3.2431e-13
3.13712e-13
3.32849e-13
3.60629e-13
3.88154e-13
4.45141e-13
3.70109e-13
4.40189e-13
1.11643e-13
6.65615e-13
2.57062e-13
9.73853e-13
1.67969e-12
2.29098e-13
3.60067e-13
2.11903e-13
1.81368e-13
2.16687e-13
6.24783e-13
7.37315e-13
5.0299e-13
2.48527e-13
2.36817e-13
7.12193e-13
4.1808e-13
6.35838e-13
4.34371e-13
3.50883e-13
3.13337e-13
3.81744e-13
3.45836e-13
3.35875e-13
3.32101e-13
3.28328e-13
3.2497e-13
3.20461e-13
3.13072e-13
3.14907e-13
3.47786e-13
3.62828e-13
3.88194e-13
3.50619e-13
3.92417e-13
1.0867e-13
1.87941e-13
3.66879e-13
2.1332e-13
1.14688e-12
1.92936e-12
2.69941e-13
5.18457e-13
1.98971e-13
1.63999e-13
2.0998e-13
6.94645e-13
9.36281e-13
3.29298e-13
3.70884e-13
3.38573e-13
6.01493e-13
4.87824e-13
5.93059e-13
3.23069e-13
3.06161e-13
3.49779e-13
3.69502e-13
3.42485e-13
3.31796e-13
3.28069e-13
3.23616e-13
3.2052e-13
3.16477e-13
3.10907e-13
3.18795e-13
3.44875e-13
3.61852e-13
3.82995e-13
3.46041e-13
3.0675e-13
1.02067e-13
2.85136e-13
1.98002e-13
4.95365e-13
2.8856e-13
4.45408e-13
5.24164e-13
5.34611e-13
4.69703e-13
2.05232e-13
1.65478e-13
2.30664e-13
3.23211e-13
3.77334e-13
3.80135e-13
3.91988e-13
4.69682e-13
6.16978e-13
4.0955e-13
3.79036e-13
2.87865e-13
2.96231e-13
3.59385e-13
3.5576e-13
3.38073e-13
3.28492e-13
3.23394e-13
3.19347e-13
3.16265e-13
3.12584e-13
3.09344e-13
3.15278e-13
3.38992e-13
3.54657e-13
3.72486e-13
3.48728e-13
4.50046e-13
1.0413e-13
4.0886e-13
4.21541e-13
2.33233e-13
8.56463e-13
2.40141e-13
1.00128e-12
2.98191e-13
8.34734e-13
7.20945e-13
1.78244e-13
1.76837e-13
3.00218e-13
1.99151e-13
2.7467e-13
7.0626e-13
4.02738e-13
3.89567e-13
1.00044e-12
3.9823e-13
3.94798e-13
3.11272e-13
3.34656e-13
3.41514e-13
3.48504e-13
3.33807e-13
3.24018e-13
3.19212e-13
3.15179e-13
3.11978e-13
3.09301e-13
3.07308e-13
3.13019e-13
3.33293e-13
3.49071e-13
3.64936e-13
3.61864e-13
3.94263e-13
1.02383e-13
2.73585e-13
3.56553e-13
4.67664e-13
2.74053e-13
1.2787e-12
2.55686e-13
4.83114e-13
2.8517e-13
4.44356e-13
6.0925e-13
2.24213e-13
2.68581e-13
2.87956e-13
1.58749e-13
4.01266e-13
8.11871e-13
5.13715e-13
4.47456e-13
8.8122e-13
3.71892e-13
5.31071e-13
3.47648e-13
3.45268e-13
3.35288e-13
3.40072e-13
3.28729e-13
3.20102e-13
3.15056e-13
3.10912e-13
3.08365e-13
3.06215e-13
3.04404e-13
3.09556e-13
3.28554e-13
3.43792e-13
3.58083e-13
3.56592e-13
3.97549e-13
1.01049e-13
4.64904e-13
2.20318e-13
5.71862e-13
5.95931e-13
1.94968e-13
3.43029e-13
4.29267e-13
3.37265e-13
4.50097e-13
4.39095e-13
3.98341e-13
2.22954e-13
2.51659e-13
2.86639e-13
1.6922e-13
3.59875e-13
1.34682e-12
5.35982e-13
4.91057e-13
3.58176e-13
3.28259e-13
4.40714e-13
3.40607e-13
3.42822e-13
3.39931e-13
3.34266e-13
3.24174e-13
3.16019e-13
3.10804e-13
3.07267e-13
3.04965e-13
3.02284e-13
3.00973e-13
3.06804e-13
3.23919e-13
3.38376e-13
3.51198e-13
3.53876e-13
3.83445e-13
9.9821e-14
2.68762e-13
4.49836e-13
2.11838e-13
1.67795e-12
4.52899e-13
3.00717e-13
4.09758e-13
2.98562e-13
2.66776e-13
4.51338e-13
3.22021e-13
3.57743e-13
2.13802e-13
1.86581e-13
1.87171e-13
1.7752e-13
3.33153e-13
7.3651e-13
4.58696e-13
5.32306e-13
3.66131e-13
2.64742e-13
2.85896e-13
3.42961e-13
3.46544e-13
3.31919e-13
3.28243e-13
3.19594e-13
3.11828e-13
3.07133e-13
3.03829e-13
3.00726e-13
2.98083e-13
2.98124e-13
3.03905e-13
3.19379e-13
3.3311e-13
3.44855e-13
3.49485e-13
3.75701e-13
9.85086e-14
1.18432e-13
1.81279e-13
2.2655e-13
3.67954e-13
7.52836e-13
3.5074e-13
4.00748e-13
4.28827e-13
2.83372e-13
1.93986e-13
3.73874e-13
3.8186e-13
4.24428e-13
1.96212e-13
2.13782e-13
1.65258e-13
2.59021e-13
6.55883e-13
1.10183e-12
5.49578e-13
3.71254e-13
4.11629e-13
2.52977e-13
2.78466e-13
3.77096e-13
3.3778e-13
3.30199e-13
3.23301e-13
3.14948e-13
3.08126e-13
3.03664e-13
2.99528e-13
2.96207e-13
2.94619e-13
2.95257e-13
3.00838e-13
3.14872e-13
3.27933e-13
3.38742e-13
3.45282e-13
3.67528e-13
9.72411e-14
1.61269e-13
1.24243e-13
2.65085e-13
2.2192e-13
7.55335e-13
7.30287e-13
3.22092e-13
5.552e-13
4.72032e-13
2.09545e-13
1.79426e-13
4.17613e-13
8.96106e-13
4.46493e-13
2.27288e-13
8.19034e-13
2.80262e-13
3.5057e-13
8.71979e-13
4.47655e-13
5.2103e-13
3.08791e-13
3.78618e-13
3.34074e-13
3.15082e-13
3.37584e-13
3.36059e-13
3.24923e-13
3.1806e-13
3.10848e-13
3.04597e-13
2.99326e-13
2.94915e-13
2.92474e-13
2.9131e-13
2.92223e-13
2.97608e-13
3.10467e-13
3.22831e-13
3.33049e-13
3.40796e-13
3.60211e-13
9.59752e-14
9.97019e-14
1.91422e-13
1.67082e-13
3.07144e-13
2.51941e-13
2.00199e-12
5.47141e-13
5.34363e-13
1.7507e-12
9.61705e-13
2.25955e-13
1.6991e-13
4.88399e-13
5.46465e-13
4.35318e-13
6.21703e-13
5.49403e-13
3.85531e-13
6.67304e-13
4.9885e-13
7.76981e-13
4.63983e-13
3.10427e-13
2.91473e-13
3.66301e-13
3.28472e-13
3.48405e-13
3.294e-13
3.20604e-13
3.1368e-13
3.06952e-13
3.00176e-13
2.94651e-13
2.91084e-13
2.88943e-13
2.87924e-13
2.89053e-13
2.94296e-13
3.06116e-13
3.17961e-13
3.27664e-13
3.36114e-13
3.53342e-13
9.47223e-14
4.94451e-13
1.32555e-13
2.56531e-13
3.92397e-13
7.05088e-13
2.36243e-13
3.88018e-13
6.9371e-13
7.50748e-13
3.83043e-13
5.20318e-13
2.34935e-13
1.56309e-13
4.11326e-13
4.37109e-13
6.21294e-13
5.18096e-13
4.90025e-13
5.70777e-13
4.60732e-13
5.5525e-13
7.75471e-13
2.90165e-13
2.78484e-13
3.14307e-13
4.05697e-13
3.49941e-13
3.32622e-13
3.25021e-13
3.16202e-13
3.09421e-13
3.02201e-13
2.95393e-13
2.9074e-13
2.87465e-13
2.8536e-13
2.8448e-13
2.85807e-13
2.90909e-13
3.0197e-13
3.13295e-13
3.22367e-13
3.31666e-13
3.46478e-13
9.34804e-14
1.54107e-13
3.71884e-13
1.61939e-13
3.35843e-13
2.39739e-13
1.1163e-12
2.19917e-13
3.83767e-13
4.68201e-13
3.66028e-13
2.03233e-13
2.57558e-13
2.5622e-13
1.45407e-13
1.64463e-13
4.02585e-13
4.63361e-13
5.74008e-13
4.23616e-13
3.98976e-13
2.99225e-13
3.94605e-13
3.46667e-13
3.00929e-13
3.0828e-13
3.86939e-13
3.65228e-13
3.33481e-13
3.29622e-13
3.19969e-13
3.11995e-13
3.04422e-13
2.97108e-13
2.91332e-13
2.87028e-13
2.83794e-13
2.81739e-13
2.81014e-13
2.82504e-13
2.87607e-13
2.98008e-13
3.08611e-13
3.17557e-13
3.26763e-13
3.39887e-13
9.22612e-14
1.79799e-13
1.01179e-13
3.05399e-13
2.64043e-13
5.87488e-13
2.41245e-13
5.38058e-13
3.3342e-13
4.17729e-13
6.53073e-13
2.2269e-13
1.86039e-13
2.26317e-13
4.29257e-13
2.15597e-13
1.5703e-13
5.66423e-13
4.64283e-13
9.68806e-13
3.22177e-13
3.87996e-13
3.13814e-13
5.0367e-13
2.1131e-13
3.02045e-13
3.1228e-13
3.65261e-13
3.62284e-13
3.34115e-13
3.24205e-13
3.15527e-13
3.06931e-13
2.99089e-13
2.92737e-13
2.8746e-13
2.8326e-13
2.80078e-13
2.78109e-13
2.77543e-13
2.79297e-13
2.84399e-13
2.94002e-13
3.04313e-13
3.12513e-13
3.21831e-13
3.3421e-13
9.10445e-14
6.52688e-13
1.48065e-13
9.25199e-14
6.02465e-13
2.09229e-13
6.19173e-13
2.30114e-13
7.21735e-13
2.48697e-13
3.01783e-13
5.37743e-13
2.17299e-13
2.77484e-13
2.82228e-13
3.89724e-13
4.58433e-13
1.65799e-13
3.31147e-13
4.10954e-13
9.23331e-13
2.98824e-13
5.7015e-13
3.83144e-13
4.70048e-13
2.3326e-13
3.43219e-13
3.49859e-13
3.56306e-13
3.45102e-13
3.29748e-13
3.18978e-13
3.10173e-13
3.01534e-13
2.9449e-13
2.8858e-13
2.8353e-13
2.79431e-13
2.76345e-13
2.74492e-13
2.74212e-13
2.762e-13
2.81076e-13
2.90315e-13
2.99717e-13
3.07508e-13
3.17542e-13
3.27901e-13
8.98445e-14
3.52595e-13
4.97939e-13
1.44736e-13
1.02603e-13
8.50851e-13
2.94483e-13
3.41049e-13
2.3831e-13
9.04958e-13
2.29142e-13
3.51653e-13
2.60771e-13
2.80624e-13
2.10769e-13
2.24652e-13
3.61153e-13
2.98813e-13
1.80423e-13
2.74288e-13
4.4025e-13
7.91081e-13
3.09723e-13
5.89338e-13
4.63135e-13
2.51645e-13
3.03927e-13
3.61104e-13
3.2962e-13
3.39358e-13
3.3841e-13
3.23301e-13
3.13867e-13
3.04606e-13
2.9682e-13
2.90103e-13
2.8439e-13
2.79538e-13
2.75572e-13
2.72623e-13
2.71035e-13
2.71026e-13
2.73002e-13
2.77977e-13
2.86296e-13
2.9504e-13
3.03333e-13
3.12545e-13
3.22097e-13
8.8665e-14
1.17719e-13
2.82221e-13
4.31412e-13
1.02866e-13
9.95017e-14
6.29282e-13
7.86021e-13
3.32035e-13
6.36265e-13
9.81354e-13
1.73592e-13
2.38038e-13
4.31052e-13
4.42123e-13
2.20918e-13
2.65576e-13
5.06685e-13
4.83872e-13
2.79629e-13
2.37528e-13
3.19145e-13
5.73173e-13
4.34407e-13
8.7914e-13
5.66491e-13
2.20927e-13
3.73128e-13
3.61521e-13
3.36565e-13
3.40729e-13
3.30687e-13
3.18697e-13
3.07871e-13
2.99697e-13
2.92295e-13
2.85719e-13
2.80165e-13
2.75505e-13
2.71717e-13
2.69059e-13
2.6774e-13
2.67771e-13
2.70019e-13
2.74497e-13
2.82113e-13
2.91222e-13
2.98624e-13
3.07756e-13
3.17097e-13
8.74986e-14
5.69034e-13
1.97771e-13
6.25317e-13
1.59428e-12
8.58547e-14
9.37598e-14
9.50133e-13
4.66521e-13
2.89485e-13
7.13278e-13
4.57575e-13
1.88548e-13
1.87673e-13
4.63189e-13
4.61224e-13
2.91457e-13
6.51307e-13
4.69814e-13
4.01763e-13
3.51225e-13
3.39236e-13
2.60371e-13
2.59947e-13
3.52529e-13
8.85162e-13
2.96072e-13
2.32477e-13
3.91043e-13
3.6066e-13
3.36902e-13
3.30545e-13
3.23402e-13
3.11846e-13
3.02887e-13
2.94973e-13
2.8779e-13
2.81325e-13
2.75922e-13
2.71482e-13
2.68007e-13
2.65658e-13
2.64394e-13
2.64745e-13
2.66658e-13
2.70774e-13
2.78782e-13
2.86894e-13
2.94062e-13
3.03765e-13
3.1161e-13
8.6364e-14
4.74537e-14
2.10781e-13
1.2544e-13
1.6658e-13
4.10949e-13
8.1642e-14
9.94002e-14
4.02846e-13
4.19699e-13
3.5552e-13
5.41858e-13
2.51344e-13
1.67518e-13
1.64916e-13
3.2653e-13
3.39585e-13
3.38238e-13
6.67943e-13
1.05854e-12
2.67361e-13
5.63275e-13
3.48887e-13
2.60325e-13
1.48447e-13
3.97739e-13
7.89758e-13
2.17395e-13
2.99426e-13
3.45381e-13
3.41785e-13
3.31811e-13
3.26156e-13
3.16611e-13
3.06734e-13
2.97873e-13
2.90286e-13
2.83282e-13
2.76947e-13
2.71721e-13
2.67602e-13
2.64463e-13
2.62212e-13
2.61282e-13
2.61357e-13
2.63035e-13
2.6787e-13
2.74956e-13
2.82592e-13
2.905e-13
2.99103e-13
3.06385e-13
8.52408e-14
7.59937e-14
5.49292e-14
1.48048e-13
1.60096e-13
1.05304e-13
4.49352e-13
7.19892e-14
1.31399e-13
3.17917e-13
1.86215e-13
4.37627e-13
3.20588e-13
1.7085e-13
1.35103e-13
1.77656e-13
1.9517e-13
3.21526e-13
1.23368e-12
4.95383e-13
1.26166e-12
2.62034e-13
2.4076e-12
2.28851e-13
2.55266e-13
1.68626e-13
6.15183e-13
4.74649e-13
2.08158e-13
3.02682e-13
3.52077e-13
3.4329e-13
3.27936e-13
3.18932e-13
3.10465e-13
3.01233e-13
2.92988e-13
2.85597e-13
2.78787e-13
2.72648e-13
2.67701e-13
2.63893e-13
2.60881e-13
2.58996e-13
2.57818e-13
2.57706e-13
2.60244e-13
2.6447e-13
2.71054e-13
2.79412e-13
2.86227e-13
2.94382e-13
3.01482e-13
8.41237e-14
6.11938e-13
9.29236e-14
5.90398e-14
1.57602e-13
2.34292e-13
1.02106e-13
7.15282e-13
8.96368e-14
1.34498e-13
3.67726e-13
1.56925e-13
2.38754e-13
1.89655e-13
1.47953e-13
1.17486e-13
1.93088e-13
1.8975e-13
2.97054e-13
7.0131e-13
3.80191e-13
9.389e-13
5.65227e-13
5.86766e-13
3.60826e-13
3.28731e-13
2.27295e-13
3.01704e-13
2.22297e-13
2.87723e-13
3.55957e-13
3.45234e-13
3.31833e-13
3.21656e-13
3.13358e-13
3.04739e-13
2.96069e-13
2.88071e-13
2.80912e-13
2.7437e-13
2.68533e-13
2.63864e-13
2.60172e-13
2.57528e-13
2.55435e-13
2.54096e-13
2.54907e-13
2.56983e-13
2.60911e-13
2.68335e-13
2.75435e-13
2.81683e-13
2.90026e-13
2.9648e-13
8.30213e-14
7.16733e-14
3.38212e-13
2.57456e-13
7.73828e-14
1.06395e-13
9.08601e-14
5.85161e-14
3.92375e-13
1.31596e-13
1.34249e-13
6.32515e-13
1.36513e-13
2.24415e-13
1.51027e-13
1.46373e-13
1.19981e-13
2.65287e-13
2.07705e-13
4.17137e-13
5.73316e-13
4.92625e-13
3.33622e-13
4.02876e-13
5.03708e-13
9.35916e-13
1.79613e-13
2.5991e-13
3.39267e-13
4.19259e-13
4.36436e-13
3.43082e-13
3.37479e-13
3.27341e-13
3.16232e-13
3.07497e-13
2.99142e-13
2.90841e-13
2.83174e-13
2.76309e-13
2.70116e-13
2.64612e-13
2.60061e-13
2.56691e-13
2.53844e-13
2.51622e-13
2.51232e-13
2.51664e-13
2.53524e-13
2.58563e-13
2.64742e-13
2.70981e-13
2.77627e-13
2.85633e-13
2.92129e-13
8.19438e-14
2.89777e-13
8.23268e-14
2.91157e-13
3.08762e-13
2.17324e-13
1.9771e-13
8.96528e-14
5.08814e-14
3.42605e-13
1.99872e-13
1.57144e-13
2.52058e-13
1.12107e-13
1.88602e-13
1.18935e-13
1.51373e-13
1.02571e-13
2.04465e-13
1.80019e-13
3.04127e-13
5.32051e-13
6.37429e-13
3.34366e-13
8.42309e-13
1.31052e-12
5.06401e-13
1.81192e-13
2.86211e-13
3.00165e-13
3.99742e-13
4.10791e-13
3.49072e-13
3.32012e-13
3.20014e-13
3.10398e-13
3.01879e-13
2.93662e-13
2.85685e-13
2.7837e-13
2.71855e-13
2.66031e-13
2.60738e-13
2.56492e-13
2.52896e-13
2.49932e-13
2.48662e-13
2.47946e-13
2.48206e-13
2.51317e-13
2.55287e-13
2.60497e-13
2.67105e-13
2.73674e-13
2.81899e-13
2.87627e-13
8.08857e-14
2.62269e-14
3.00776e-13
1.00506e-13
6.15613e-13
7.66736e-13
2.28634e-13
1.50527e-13
1.14156e-13
6.49463e-14
4.37478e-13
1.64732e-13
1.0206e-13
1.84659e-13
9.25248e-14
1.99743e-13
1.29182e-13
1.3141e-13
1.20566e-13
3.17257e-13
2.64084e-13
2.32291e-13
4.2912e-13
5.36923e-13
4.41721e-13
2.78785e-13
2.9925e-13
6.7889e-13
2.9025e-13
2.5823e-13
2.41719e-13
3.96625e-13
3.70976e-13
3.38438e-13
3.24475e-13
3.14194e-13
3.0468e-13
2.96254e-13
2.88236e-13
2.80645e-13
2.7371e-13
2.67548e-13
2.61987e-13
2.57058e-13
2.5263e-13
2.48901e-13
2.46861e-13
2.45302e-13
2.4444e-13
2.46031e-13
2.48164e-13
2.51231e-13
2.56884e-13
2.63445e-13
2.70442e-13
2.77894e-13
2.83123e-13
7.98515e-14
2.72308e-14
2.58849e-14
3.12315e-13
1.00489e-13
6.39344e-13
9.76565e-14
1.35931e-13
1.37188e-13
9.31372e-14
7.99999e-14
5.1113e-13
1.25562e-13
1.14245e-13
1.35855e-13
1.04785e-13
2.35421e-13
1.78981e-13
1.65055e-13
1.22144e-13
3.18878e-13
2.52225e-13
2.71964e-13
3.63296e-13
4.90819e-13
4.5297e-13
2.66981e-13
2.54631e-13
2.75116e-13
3.50312e-13
2.24533e-13
1.67627e-13
3.25949e-13
3.51099e-13
3.29792e-13
3.18146e-13
3.07876e-13
2.98905e-13
2.90675e-13
2.82977e-13
2.75762e-13
2.69202e-13
2.63313e-13
2.58115e-13
2.5309e-13
2.48591e-13
2.45733e-13
2.43416e-13
2.41723e-13
2.42229e-13
2.42904e-13
2.44154e-13
2.47834e-13
2.53559e-13
2.6056e-13
2.66864e-13
2.73705e-13
2.78768e-13
7.88206e-14
5.06323e-13
2.4387e-14
2.75235e-14
2.97827e-13
1.11854e-13
1.24145e-13
1.1433e-13
1.28219e-13
2.22892e-13
1.08844e-13
9.72957e-14
2.2682e-13
1.04132e-13
1.1751e-13
9.9318e-14
9.81972e-14
2.52682e-13
2.06146e-13
2.1722e-13
1.36438e-13
3.8906e-13
3.36902e-13
2.21937e-13
4.06026e-13
3.05095e-13
3.60348e-13
3.1016e-13
2.68665e-13
2.29283e-13
4.35151e-13
2.85424e-13
2.4281e-13
3.35471e-13
3.33093e-13
3.22739e-13
3.11304e-13
3.01841e-13
2.93148e-13
2.85249e-13
2.77872e-13
2.71035e-13
2.64792e-13
2.59237e-13
2.53954e-13
2.48973e-13
2.45345e-13
2.42215e-13
2.39767e-13
2.39439e-13
2.39072e-13
2.38875e-13
2.40827e-13
2.44775e-13
2.51034e-13
2.57265e-13
2.6294e-13
2.69612e-13
2.74819e-13
7.78084e-14
5.58827e-14
3.73704e-13
3.51908e-14
3.5049e-14
2.81661e-13
1.00439e-13
1.16845e-13
1.33945e-13
1.24865e-13
2.27358e-13
1.44506e-13
1.32187e-13
1.92921e-13
1.32288e-13
9.51706e-14
8.54484e-14
1.01991e-13
2.50961e-13
2.43553e-13
9.23152e-13
2.06711e-13
4.5448e-13
2.41528e-13
2.37714e-13
4.05433e-13
1.89871e-13
5.0004e-13
3.05492e-13
4.23618e-13
3.37848e-13
7.50108e-13
3.84717e-13
3.52902e-13
3.2977e-13
3.27308e-13
3.14622e-13
3.04866e-13
2.95761e-13
2.87542e-13
2.79964e-13
2.72928e-13
2.66443e-13
2.60531e-13
2.54885e-13
2.49667e-13
2.45573e-13
2.41754e-13
2.38514e-13
2.37398e-13
2.36221e-13
2.34991e-13
2.35551e-13
2.37887e-13
2.42528e-13
2.48035e-13
2.53473e-13
2.59076e-13
2.66057e-13
2.70972e-13
7.68143e-14
1.99221e-13
3.95413e-14
6.8025e-14
6.83578e-14
4.88648e-14
1.19074e-13
1.74145e-13
1.45182e-13
1.20204e-13
1.47346e-13
4.04399e-13
1.34797e-13
1.41481e-13
2.72248e-13
1.1371e-13
7.92631e-14
8.72549e-14
1.82335e-13
3.77554e-13
3.02017e-13
4.49519e-13
2.19671e-13
1.25272e-12
3.43935e-13
2.25208e-13
2.64083e-13
1.64224e-13
2.28782e-13
2.76627e-13
2.87569e-13
3.75315e-13
6.28387e-13
3.63799e-13
3.28677e-13
3.24077e-13
3.16586e-13
3.07861e-13
2.98405e-13
2.89911e-13
2.82064e-13
2.74826e-13
2.68153e-13
2.61996e-13
2.56021e-13
2.50454e-13
2.46041e-13
2.41818e-13
2.37978e-13
2.36054e-13
2.3412e-13
2.32079e-13
2.31626e-13
2.32646e-13
2.35777e-13
2.39762e-13
2.44411e-13
2.49713e-13
2.55913e-13
2.62651e-13
2.66999e-13
7.58457e-14
8.707e-14
3.53626e-13
6.22355e-14
1.02315e-13
1.53204e-13
5.06545e-14
1.03935e-13
1.88785e-13
1.30303e-13
2.75602e-13
9.19621e-14
2.99089e-13
1.93518e-13
1.51632e-13
1.39639e-13
1.41153e-13
7.72474e-14
9.10729e-14
2.78275e-13
2.71336e-13
6.74142e-13
3.29399e-13
2.12142e-13
2.53859e-13
8.89822e-13
2.26528e-13
2.40894e-13
3.09302e-13
1.75799e-13
2.46544e-13
1.8604e-13
2.68008e-13
4.22683e-13
3.50347e-13
3.27211e-13
3.18469e-13
3.10449e-13
3.00856e-13
2.92259e-13
2.8419e-13
2.76725e-13
2.69883e-13
2.63515e-13
2.57323e-13
2.51487e-13
2.46657e-13
2.42091e-13
2.37898e-13
2.35393e-13
2.32714e-13
2.2993e-13
2.28657e-13
2.28703e-13
2.30589e-13
2.33125e-13
2.36278e-13
2.40791e-13
2.46807e-13
2.52954e-13
2.58958e-13
2.63241e-13
7.48864e-14
4.95709e-14
9.37353e-14
2.87892e-13
5.4554e-14
1.50371e-13
2.40076e-13
5.53868e-14
7.56653e-14
2.19637e-13
1.4543e-13
3.60556e-13
7.29905e-14
2.51614e-13
1.68022e-13
1.60737e-13
1.61659e-13
1.03425e-13
7.76891e-14
1.27888e-13
2.5772e-13
1.60108e-13
6.8186e-13
2.99137e-13
2.23443e-13
2.29438e-13
4.50721e-13
2.63983e-13
2.90913e-13
3.62806e-13
2.37128e-13
3.56536e-13
1.87551e-13
2.12127e-13
3.64147e-13
3.35417e-13
3.2138e-13
3.11291e-13
3.02736e-13
2.94443e-13
2.86267e-13
2.78624e-13
2.7161e-13
2.65064e-13
2.58675e-13
2.5268e-13
2.47537e-13
2.42561e-13
2.38024e-13
2.35125e-13
2.31946e-13
2.28478e-13
2.26451e-13
2.25685e-13
2.26637e-13
2.27977e-13
2.29696e-13
2.32774e-13
2.38134e-13
2.44165e-13
2.49557e-13
2.55421e-13
2.59251e-13
7.39487e-14
1.12776e-13
4.51567e-14
1.15461e-13
1.07523e-13
7.83737e-14
9.14732e-14
2.8937e-13
5.98956e-14
7.06093e-14
3.02757e-12
1.08886e-13
2.65662e-13
6.40926e-14
2.06755e-13
2.40403e-13
1.50476e-13
1.36618e-13
6.70366e-14
1.16429e-13
1.06404e-13
1.80214e-13
2.09775e-13
6.26787e-13
8.05161e-13
3.71692e-13
1.53989e-13
2.24444e-13
4.03485e-13
2.18306e-13
3.78912e-13
3.73148e-13
2.33614e-13
2.5402e-13
3.2716e-13
3.36409e-13
3.24872e-13
3.12988e-13
3.04437e-13
2.96309e-13
2.88167e-13
2.80457e-13
2.73318e-13
2.66607e-13
2.60062e-13
2.53919e-13
2.48576e-13
2.43308e-13
2.3839e-13
2.35058e-13
2.31522e-13
2.27642e-13
2.24937e-13
2.23418e-13
2.23573e-13
2.2401e-13
2.24551e-13
2.26232e-13
2.30306e-13
2.35782e-13
2.40958e-13
2.46254e-13
2.51618e-13
2.56347e-13
7.3022e-14
6.65202e-14
6.95749e-14
7.73672e-14
1.76232e-13
7.52563e-14
2.47211e-13
1.26593e-13
3.38413e-13
5.46726e-14
7.9265e-14
8.7675e-13
1.09237e-13
2.2008e-13
6.33752e-14
2.16998e-13
1.15678e-13
1.35229e-13
1.10154e-13
7.49046e-14
1.31506e-13
1.13686e-13
2.43906e-13
2.65563e-13
3.9107e-13
8.35017e-13
3.95352e-13
1.45665e-13
2.59554e-13
5.89656e-13
2.48252e-13
2.90567e-13
3.1881e-13
2.10513e-13
3.29784e-13
3.29862e-13
3.26673e-13
3.15632e-13
3.06201e-13
2.97681e-13
2.89766e-13
2.82128e-13
2.74954e-13
2.68125e-13
2.61442e-13
2.55195e-13
2.49656e-13
2.44211e-13
2.39046e-13
2.35268e-13
2.31319e-13
2.27129e-13
2.24009e-13
2.21826e-13
2.21243e-13
2.20902e-13
2.20556e-13
2.21084e-13
2.2386e-13
2.28174e-13
2.32756e-13
2.37787e-13
2.42651e-13
2.48983e-13
2.52516e-13
7.21142e-14
4.91879e-14
4.96854e-14
6.47508e-14
3.47635e-14
1.08218e-13
3.56251e-14
3.42062e-13
2.14997e-13
4.15556e-13
7.79094e-14
7.54622e-14
2.47227e-13
1.61152e-13
1.94997e-13
5.52303e-14
7.72931e-14
1.73581e-13
8.05441e-14
5.81105e-14
6.94365e-14
1.2018e-13
3.02352e-13
2.75394e-13
6.63682e-13
2.44023e-13
7.98988e-13
2.75741e-13
2.9899e-13
2.26258e-13
1.89779e-13
2.64011e-13
2.45617e-13
2.93838e-13
3.1839e-13
3.13251e-13
3.21885e-13
3.15869e-13
3.07534e-13
2.98953e-13
2.9112e-13
2.8357e-13
2.7644e-13
2.6957e-13
2.62793e-13
2.56463e-13
2.50774e-13
2.4515e-13
2.39854e-13
2.35769e-13
2.31418e-13
2.26853e-13
2.23388e-13
2.20791e-13
2.19562e-13
2.18511e-13
2.17407e-13
2.17062e-13
2.18744e-13
2.21852e-13
2.2529e-13
2.29711e-13
2.34293e-13
2.40308e-13
2.45418e-13
2.48744e-13
7.12253e-14
8.24255e-14
6.3327e-14
5.6462e-14
1.11624e-13
4.36224e-14
1.60565e-13
2.03482e-14
1.12384e-13
4.32084e-13
2.94523e-13
1.2706e-13
9.29023e-14
1.47044e-13
1.37058e-13
8.36911e-14
5.79787e-14
6.55985e-14
1.35194e-13
7.93977e-14
8.03832e-14
1.05535e-13
7.24758e-14
1.19109e-13
5.78591e-13
1.24159e-12
5.24142e-13
3.96065e-13
1.56575e-13
4.59317e-13
2.09719e-13
1.58896e-13
1.74086e-13
2.9589e-13
3.55477e-13
3.23321e-13
3.19836e-13
3.1494e-13
3.08175e-13
3.00097e-13
2.92291e-13
2.8475e-13
2.77724e-13
2.70879e-13
2.64075e-13
2.57702e-13
2.51885e-13
2.46127e-13
2.40696e-13
2.3642e-13
2.31804e-13
2.26897e-13
2.23027e-13
2.20054e-13
2.1841e-13
2.16748e-13
2.14972e-13
2.13875e-13
2.14707e-13
2.1679e-13
2.19042e-13
2.22344e-13
2.26326e-13
2.32158e-13
2.37037e-13
2.41678e-13
2.45974e-13
7.03341e-14
8.11947e-14
9.72377e-14
6.57301e-14
1.44538e-13
2.35613e-13
4.86103e-14
1.78956e-13
1.9889e-14
1.58667e-13
2.16858e-13
7.61354e-13
7.44357e-14
3.18744e-13
5.66996e-14
1.29639e-13
1.47631e-13
7.00296e-14
5.21608e-14
8.01211e-14
8.41473e-14
1.41943e-13
1.34368e-13
8.06773e-14
8.39289e-14
3.52391e-13
3.01321e-13
6.95303e-13
6.34036e-13
2.38702e-13
4.76961e-13
1.93409e-13
4.64361e-13
2.97285e-13
3.98671e-13
3.28808e-13
3.22797e-13
3.13739e-13
3.07548e-13
3.00518e-13
2.93126e-13
2.85708e-13
2.78792e-13
2.72017e-13
2.65236e-13
2.58876e-13
2.5297e-13
2.47098e-13
2.41576e-13
2.37106e-13
2.32343e-13
2.2723e-13
2.2299e-13
2.1958e-13
2.17547e-13
2.15492e-13
2.13155e-13
2.11399e-13
2.11475e-13
2.12756e-13
2.14006e-13
2.16141e-13
2.19049e-13
2.24371e-13
2.29094e-13
2.33336e-13
2.39151e-13
2.4269e-13
6.94753e-14
6.93052e-14
7.37276e-14
8.2366e-14
3.94254e-13
1.31736e-13
1.54434e-13
2.8971e-14
2.4659e-13
2.13567e-14
2.85578e-13
1.56973e-13
2.1078e-13
6.90976e-14
2.69213e-13
3.30637e-14
1.82796e-13
1.17411e-13
7.18742e-14
5.23068e-14
6.72702e-14
2.92462e-13
5.32283e-13
1.1155e-13
1.69089e-13
9.0364e-14
2.93891e-13
2.46522e-13
4.84397e-13
2.22266e-13
2.17264e-13
7.16555e-13
2.05078e-13
3.3603e-13
4.28921e-13
3.41727e-13
3.29973e-13
3.15035e-13
3.07298e-13
3.00497e-13
2.93497e-13
2.86411e-13
2.79663e-13
2.72966e-13
2.66249e-13
2.5994e-13
2.53999e-13
2.48048e-13
2.42449e-13
2.37831e-13
2.32918e-13
2.2772e-13
2.23237e-13
2.19432e-13
2.16954e-13
2.14517e-13
2.11834e-13
2.09534e-13
2.08934e-13
2.09492e-13
2.09959e-13
2.11109e-13
2.12886e-13
2.17225e-13
2.21482e-13
2.25374e-13
2.31078e-13
2.36203e-13
2.39326e-13
6.86309e-14
1.65683e-13
8.73147e-14
8.8967e-14
7.88334e-14
6.62837e-14
7.46851e-14
2.78331e-13
3.52771e-14
1.22187e-13
1.9043e-14
2.06776e-13
2.62541e-13
2.57737e-13
6.92751e-14
7.33193e-14
2.87696e-14
1.88426e-13
1.2019e-13
5.26755e-14
6.22269e-14
7.46415e-14
1.60444e-13
2.09369e-13
1.39258e-13
3.35801e-13
7.88353e-14
1.83795e-13
6.72035e-13
4.71443e-13
1.05463e-12
1.99242e-13