/*--------------------------------*- C++ -*----------------------------------*\
| =========                 |                                                 |
| \\      /  F ield         | OpenFOAM: The Open Source CFD Toolbox           |
|  \\    /   O peration     | Version:  2212                                  |
|   \\  /    A nd           | Website:  www.openfoam.com                      |
|    \\/     M anipulation  |                                                 |
\*---------------------------------------------------------------------------*/
FoamFile
{
    version     2.0;
    format      ascii;
    arch        "LSB;label=32;scalar=64";
    class       volScalarField;
    location    "20";
    object      p;
}
// * * * * * * * * * * * * * * * * * * * * * * * * * * * * * * * * * * * * * //

dimensions      [0 2 -2 0 0 0 0];

internalField   nonuniform List<scalar> 
165000
(
-0.000191086
-6.76548e-05
-0.00047359
-6.31098e-05
-0.000185938
-0.000920836
4.86869e-05
-0.000104956
-0.000245915
-0.00134141
-2.07859e-06
0.00023925
-0.000291487
-0.000198181
-0.00168402
-3.63431e-05
-8.35794e-05
0.000504597
-0.00062497
-0.000282045
-0.00189964
-3.71335e-05
-4.8553e-05
-0.000266589
0.000356334
-0.00101635
-0.000503731
-0.00227008
-9.24528e-05
-7.32795e-05
-3.66178e-05
-0.000457887
-0.000132522
-0.0015201
-0.00071819
-0.00288259
-0.000184665
-0.000434326
-0.000229397
-0.000305115
-0.000872726
-0.000575631
-0.00188076
-0.000936185
-0.00326423
-0.000208837
-0.000558774
-0.00103672
-0.0006446
-0.000689648
-0.00140113
-0.00142235
-0.0023758
-0.00149871
-0.00369475
-0.000220307
-0.000664142
-0.00102682
-0.00152198
-0.00139337
-0.00123906
-0.0019902
-0.00259873
-0.00338221
-0.00245408
-0.00402586
-0.000202741
-0.000657927
-0.00138478
-0.0015924
-0.00208875
-0.00237262
-0.00229143
-0.00277905
-0.00370069
-0.00457175
-0.00381532
-0.00433305
-0.00021747
-0.000600175
-0.00113875
-0.00211426
-0.00224982
-0.00284534
-0.00319904
-0.00356981
-0.00378599
-0.00461798
-0.00564212
-0.0052874
-0.00509259
-0.00026763
-0.000718028
-0.00103738
-0.00161065
-0.00266645
-0.00290814
-0.00356088
-0.00389171
-0.00471018
-0.00476862
-0.00490133
-0.00652126
-0.00615063
-0.00644004
-0.000242537
-0.000837295
-0.00126403
-0.00150765
-0.00209588
-0.00311461
-0.0034569
-0.00412486
-0.00463528
-0.00545103
-0.00557363
-0.00550742
-0.00739619
-0.00717318
-0.00776549
-0.000200806
-0.000603576
-0.00137826
-0.00156433
-0.00197405
-0.00254568
-0.00358882
-0.00406832
-0.00470824
-0.00535056
-0.00584588
-0.00633906
-0.00670784
-0.00825995
-0.00847052
-0.00876515
-0.000171016
-0.000656156
-0.000970079
-0.00152824
-0.00185587
-0.00249357
-0.0030177
-0.00398122
-0.00455738
-0.0054269
-0.00588957
-0.00597842
-0.00716272
-0.00763699
-0.00895928
-0.00918676
-0.00947799
-0.000201231
-0.000602565
-0.00113176
-0.00150294
-0.00177927
-0.00235921
-0.00315139
-0.00350496
-0.00434018
-0.00505382
-0.00627445
-0.00650043
-0.00659578
-0.00809548
-0.00832272
-0.0097879
-0.00962036
-0.00981345
-0.000312691
-0.000710466
-0.000980618
-0.00145732
-0.00206328
-0.00265023
-0.00285938
-0.00374971
-0.0039718
-0.00474296
-0.00577762
-0.00714536
-0.00717864
-0.00777313
-0.00904521
-0.00859568
-0.0110177
-0.00997809
-0.0102201
-0.000495806
-0.000986685
-0.00145708
-0.00126517
-0.00163313
-0.00254082
-0.00330721
-0.00335714
-0.00408236
-0.00441381
-0.00516445
-0.00635102
-0.00781621
-0.00794363
-0.00891663
-0.00980295
-0.00931335
-0.0124145
-0.0101196
-0.0111852
-0.000257037
-0.00110125
-0.00161225
-0.00196631
-0.00155341
-0.00189077
-0.00283911
-0.00346896
-0.00394902
-0.00434262
-0.00482784
-0.00560442
-0.00683624
-0.0084225
-0.00885784
-0.00989461
-0.0105753
-0.0109779
-0.0135477
-0.0103431
-0.0124329
-0.000182662
-0.000879148
-0.00149473
-0.00196502
-0.00239237
-0.0020703
-0.00233984
-0.00299269
-0.00374271
-0.0043322
-0.0046447
-0.00522237
-0.00605031
-0.0073638
-0.00911749
-0.00952108
-0.0107015
-0.0112762
-0.0124784
-0.0142278
-0.0110546
-0.0134787
-0.000218201
-0.000945894
-0.00181042
-0.00207457
-0.00215801
-0.00263773
-0.00242871
-0.00265797
-0.00343231
-0.00420061
-0.00472754
-0.00498245
-0.00559748
-0.00649246
-0.00786059
-0.00977165
-0.0101355
-0.0114763
-0.0118762
-0.0133822
-0.0148029
-0.0124846
-0.0143374
-0.000244739
-0.000878329
-0.00183085
-0.00235907
-0.00260567
-0.0022888
-0.00272674
-0.00258325
-0.00292238
-0.00390694
-0.00443245
-0.00514935
-0.00529443
-0.00596207
-0.00693385
-0.00837107
-0.0104055
-0.0110382
-0.0122976
-0.0127996
-0.0144226
-0.0154888
-0.0146094
-0.0153889
-0.000334397
-0.000907763
-0.00170811
-0.00202443
-0.00254842
-0.00281693
-0.00239399
-0.00302476
-0.00273781
-0.00316456
-0.0041576
-0.00465473
-0.00538917
-0.00560305
-0.00631489
-0.00736614
-0.00887828
-0.0110038
-0.0120609
-0.0130705
-0.0137083
-0.0154132
-0.0163099
-0.0166745
-0.0166407
-0.000313496
-0.00107543
-0.00169067
-0.00220683
-0.00201134
-0.00245972
-0.00267035
-0.00254577
-0.0032246
-0.00297154
-0.00359143
-0.00458032
-0.00515396
-0.00558967
-0.00588542
-0.00665933
-0.00779366
-0.00938944
-0.0115833
-0.0127595
-0.0139185
-0.0145874
-0.0161976
-0.0175539
-0.0184615
-0.0182532
-0.000434935
-0.000859914
-0.00172666
-0.00222003
-0.00242013
-0.00218003
-0.00262584
-0.00248939
-0.00318363
-0.00307885
-0.00314798
-0.00407926
-0.00504726
-0.00570313
-0.00579624
-0.00615955
-0.00699346
-0.00821306
-0.00989251
-0.0121196
-0.013325
-0.014912
-0.0156866
-0.0174059
-0.0186223
-0.0205709
-0.0198023
-0.000461059
-0.00101287
-0.00138859
-0.00244273
-0.00256949
-0.00257797
-0.00264958
-0.00313623
-0.00233966
-0.00364689
-0.00296014
-0.0034796
-0.00417553
-0.00525219
-0.00583961
-0.00595446
-0.00641313
-0.00732053
-0.00862604
-0.0103946
-0.0126431
-0.0142702
-0.0161157
-0.0172
-0.0190155
-0.019799
-0.0225883
-0.0212115
-0.00037438
-0.00102896
-0.00119468
-0.0020981
-0.0029174
-0.0028301
-0.0026942
-0.00308461
-0.0035419
-0.0024017
-0.00374332
-0.00321515
-0.00399624
-0.00432538
-0.00540048
-0.00574219
-0.00610235
-0.00665895
-0.00763749
-0.00903297
-0.0108896
-0.0131946
-0.0154606
-0.017476
-0.0189442
-0.0209043
-0.0215245
-0.0234645
-0.0231654
-0.000348704
-0.000973925
-0.00112567
-0.00196554
-0.00260707
-0.00316472
-0.00305044
-0.00265842
-0.00322276
-0.00381645
-0.00288306
-0.00367019
-0.00339993
-0.00434693
-0.00466342
-0.00554731
-0.00579881
-0.00624692
-0.00688809
-0.00794791
-0.00943276
-0.0113815
-0.0137886
-0.0164769
-0.018593
-0.0203171
-0.0223817
-0.0227177
-0.0242226
-0.0243672
-0.000431157
-0.00115469
-0.00127454
-0.00170134
-0.00268222
-0.00308139
-0.00337272
-0.00308096
-0.00272182
-0.00313267
-0.00395263
-0.003592
-0.00349679
-0.00367568
-0.00465342
-0.00493933
-0.00569916
-0.0058729
-0.00637256
-0.00710898
-0.00824862
-0.00982679
-0.0118629
-0.0143704
-0.0173817
-0.0195859
-0.0212133
-0.0233744
-0.0235517
-0.0258867
-0.0257387
-0.000324144
-0.00128286
-0.00166013
-0.00183277
-0.00260746
-0.00299084
-0.0033678
-0.00340972
-0.0031221
-0.00322685
-0.00367125
-0.00394298
-0.00401974
-0.00345305
-0.00426718
-0.00481093
-0.0052961
-0.00581398
-0.00594672
-0.00649889
-0.00731625
-0.00854287
-0.0102114
-0.0123373
-0.0149354
-0.0179717
-0.020296
-0.0219328
-0.0241463
-0.0245806
-0.0273526
-0.0284584
-0.000221154
-0.000981572
-0.00163153
-0.00181703
-0.00227133
-0.00294296
-0.00308616
-0.00330158
-0.0035095
-0.00342049
-0.00381206
-0.00432214
-0.00392451
-0.00429424
-0.00391904
-0.00485839
-0.00516425
-0.00564592
-0.0058778
-0.0060236
-0.00660848
-0.00751516
-0.00882699
-0.0105901
-0.0128023
-0.0154679
-0.0184283
-0.0209279
-0.0227245
-0.0249234
-0.0259108
-0.0288281
-0.0302964
-0.000191086
-0.000725828
-0.00147431
-0.00198939
-0.00226642
-0.00256068
-0.00309275
-0.00299011
-0.00337014
-0.00354948
-0.00383508
-0.00436549
-0.0042868
-0.00411042
-0.00447577
-0.00442774
-0.00532832
-0.00560185
-0.00598915
-0.00588837
-0.00606652
-0.00671288
-0.00770167
-0.00910516
-0.0109604
-0.0132626
-0.0159913
-0.0189888
-0.0216426
-0.0236764
-0.0259767
-0.0272583
-0.030954
-0.03189
-0.000146154
-0.000680718
-0.00135084
-0.00193488
-0.00248286
-0.00254114
-0.00299725
-0.00309056
-0.00315285
-0.00350589
-0.00350943
-0.00395599
-0.00482402
-0.00412254
-0.00426816
-0.00463554
-0.0046422
-0.0054886
-0.00593413
-0.00623509
-0.00585804
-0.00609885
-0.00680267
-0.00788048
-0.00937429
-0.0113258
-0.0137166
-0.0165235
-0.0195746
-0.0223796
-0.0246344
-0.027038
-0.028624
-0.0325064
-0.0329187
-8.14373e-05
-0.000516581
-0.0012669
-0.00180324
-0.00233393
-0.0026485
-0.00250614
-0.00325006
-0.00314311
-0.00331458
-0.00352246
-0.00366805
-0.00410008
-0.00475324
-0.00403158
-0.00435109
-0.00487206
-0.00532355
-0.005848
-0.00611603
-0.00613719
-0.0058006
-0.00610774
-0.00688487
-0.00804855
-0.00963785
-0.0116837
-0.0141699
-0.0170568
-0.0201822
-0.0231274
-0.0255971
-0.028111
-0.0299751
-0.0333861
-0.0339187
-6.90065e-05
-0.000406855
-0.00114956
-0.00178486
-0.00203026
-0.0026248
-0.00266679
-0.00275656
-0.00339946
-0.00312533
-0.00333615
-0.0037147
-0.00421446
-0.00417257
-0.00427673
-0.00410961
-0.00473664
-0.00490214
-0.00572335
-0.00607315
-0.00589384
-0.00586476
-0.00571109
-0.00610445
-0.00695473
-0.00820954
-0.00989278
-0.0120387
-0.014619
-0.0175964
-0.0208025
-0.0238932
-0.026562
-0.0291998
-0.0313064
-0.0344494
-0.0354778
-0.000137847
-0.000356297
-0.00121958
-0.00182062
-0.00203815
-0.00248965
-0.00286291
-0.0027796
-0.00319633
-0.00353927
-0.00324074
-0.00328291
-0.00420596
-0.00413391
-0.0038897
-0.00384335
-0.00446239
-0.00517211
-0.00519256
-0.00557465
-0.00590519
-0.00553964
-0.0055889
-0.0056045
-0.00608366
-0.00701657
-0.00836058
-0.0101434
-0.0123874
-0.0150688
-0.0181389
-0.0214399
-0.0246688
-0.027533
-0.0302989
-0.0326338
-0.0357014
-0.0370214
-9.58689e-05
-0.000369353
-0.00111039
-0.00174253
-0.00206734
-0.0024252
-0.00293077
-0.00307623
-0.00308539
-0.00355898
-0.00375938
-0.00369155
-0.00389993
-0.00441167
-0.00379162
-0.00387502
-0.00371689
-0.00491545
-0.00530158
-0.00584044
-0.00538794
-0.00564993
-0.00528081
-0.00533591
-0.00547838
-0.00605156
-0.00706716
-0.00850587
-0.0103862
-0.0127341
-0.0155165
-0.0186881
-0.0220873
-0.0254596
-0.0285083
-0.0314148
-0.0339642
-0.0370487
-0.0385653
-7.72104e-05
-0.00029113
-0.000857364
-0.0016672
-0.00217001
-0.00231587
-0.00291069
-0.0032751
-0.00338199
-0.00371036
-0.00379537
-0.00393095
-0.00417324
-0.00462173
-0.00401533
-0.00406773
-0.00410147
-0.00406936
-0.00497385
-0.00556256
-0.00608687
-0.00537569
-0.00535796
-0.00501852
-0.00507888
-0.00534032
-0.00600523
-0.00711082
-0.0086421
-0.0106252
-0.013076
-0.0159663
-0.0192398
-0.0227489
-0.0262607
-0.0294927
-0.0325416
-0.0353002
-0.0384071
-0.0401104
-8.22797e-05
-0.00027277
-0.000794832
-0.00155717
-0.00207841
-0.00253403
-0.0028344
-0.00323677
-0.00349521
-0.00368503
-0.0038567
-0.00379147
-0.0039516
-0.00421824
-0.00464543
-0.00414343
-0.00397865
-0.00413063
-0.00444473
-0.00513269
-0.00563615
-0.00593778
-0.00537698
-0.00501564
-0.00471974
-0.00482607
-0.00518824
-0.00594962
-0.00714414
-0.00877317
-0.0108577
-0.0134171
-0.0164141
-0.0197984
-0.0234197
-0.0270762
-0.0304825
-0.0336844
-0.0366369
-0.0397857
-0.0416529
-0.000124886
-0.000297266
-0.000765981
-0.0015521
-0.00201723
-0.00245547
-0.00269202
-0.00295667
-0.0034247
-0.00363689
-0.00356534
-0.00368474
-0.00375024
-0.00369867
-0.00403031
-0.00449936
-0.00429432
-0.0037457
-0.00405449
-0.00497123
-0.00531899
-0.00506597
-0.00544049
-0.00513488
-0.00461177
-0.00440591
-0.00456555
-0.00502685
-0.00588176
-0.00717093
-0.0088964
-0.0110874
-0.0137537
-0.0168647
-0.0203602
-0.0241034
-0.027901
-0.0314832
-0.0348369
-0.0379807
-0.041177
-0.043198
-0.000198635
-0.000415578
-0.000813188
-0.00150845
-0.00196457
-0.00235233
-0.00269331
-0.0028341
-0.00313942
-0.00353452
-0.0035691
-0.00320969
-0.00353321
-0.00364693
-0.00344197
-0.00389447
-0.00416226
-0.00404679
-0.003903
-0.0043237
-0.00523434
-0.00514727
-0.00462911
-0.00485289
-0.00468365
-0.00420001
-0.00406973
-0.00429999
-0.00485365
-0.00580566
-0.00718848
-0.0090154
-0.0113109
-0.0140902
-0.0173147
-0.0209296
-0.0247951
-0.0287397
-0.0324896
-0.0360046
-0.0393274
-0.0425848
-0.0447445
-0.000239634
-0.00059234
-0.000930757
-0.00146882
-0.00199754
-0.00228007
-0.00262743
-0.00286505
-0.00305034
-0.00332499
-0.00332695
-0.00306447
-0.00310383
-0.00346332
-0.003438
-0.00371558
-0.00386886
-0.00398475
-0.00392485
-0.00440777
-0.00497424
-0.00499318
-0.00490991
-0.00467145
-0.0043729
-0.00414054
-0.0037598
-0.00372114
-0.0040249
-0.00467214
-0.00571894
-0.00720039
-0.00912674
-0.0115322
-0.0144235
-0.0177683
-0.0215021
-0.0254988
-0.0295867
-0.0335079
-0.0371825
-0.040681
-0.0440059
-0.0462971
-0.000248088
-0.000617601
-0.000939386
-0.00144842
-0.00207079
-0.00233896
-0.00262344
-0.0028399
-0.00304601
-0.00315776
-0.00323989
-0.00293531
-0.00277853
-0.003405
-0.00359091
-0.00364882
-0.00375017
-0.00393221
-0.00401442
-0.00406144
-0.00510758
-0.00516452
-0.00488949
-0.00480093
-0.00458096
-0.00386556
-0.00355529
-0.00331315
-0.00335767
-0.0037423
-0.00448004
-0.00562513
-0.00720312
-0.00923428
-0.0117483
-0.0147577
-0.0182217
-0.0220824
-0.0262091
-0.030447
-0.0345339
-0.0383737
-0.0420398
-0.0454436
-0.04785
-0.00027225
-0.00065406
-0.000912093
-0.00138428
-0.00198603
-0.00237433
-0.00259261
-0.00278714
-0.00304506
-0.00308414
-0.00311614
-0.00311871
-0.00292214
-0.00307557
-0.00365884
-0.00366079
-0.0035458
-0.00367394
-0.0038571
-0.00421078
-0.0046091
-0.00500224
-0.00492604
-0.00478706
-0.00454118
-0.00401816
-0.00331221
-0.00301044
-0.00285319
-0.00298381
-0.00344959
-0.00428049
-0.00552099
-0.00720023
-0.009335
-0.0119632
-0.0150891
-0.0186793
-0.0226656
-0.0269309
-0.031316
-0.0355714
-0.0395754
-0.0434081
-0.0468908
-0.0494128
-0.000270348
-0.000683955
-0.000967819
-0.00139124
-0.00191934
-0.00233939
-0.00253888
-0.00279381
-0.00295334
-0.00307934
-0.00291686
-0.00303826
-0.00309807
-0.00310118
-0.00358189
-0.00367906
-0.00332022
-0.00347606
-0.00373086
-0.00389522
-0.00420601
-0.00487075
-0.00466797
-0.00455486
-0.00437156
-0.00400261
-0.00332543
-0.00273013
-0.00245843
-0.00238557
-0.00259807
-0.00314924
-0.00407057
-0.00540985
-0.00718879
-0.00943257
-0.0121733
-0.015422
-0.0191367
-0.0232566
-0.0276596
-0.0321971
-0.0366178
-0.0407912
-0.0447799
-0.0483556
-0.0509791
-0.000276155
-0.000692095
-0.000937636
-0.00139674
-0.00188468
-0.00233559
-0.00253308
-0.0028078
-0.00295331
-0.00309622
-0.00289507
-0.00297547
-0.00286817
-0.00314656
-0.0034079
-0.00359888
-0.00352511
-0.00332935
-0.00368878
-0.00365677
-0.00404977
-0.00455083
-0.00469926
-0.00446669
-0.00422212
-0.0037797
-0.00324458
-0.00262537
-0.00212856
-0.00190304
-0.00190797
-0.00220353
-0.00283842
-0.00385329
-0.005289
-0.00717224
-0.00952363
-0.0123828
-0.0157524
-0.0195987
-0.0238513
-0.0283985
-0.0330873
-0.0376772
-0.0420147
-0.046164
-0.0498307
-0.0525549
-0.000276893
-0.000711173
-0.000928125
-0.00136638
-0.00188897
-0.0023413
-0.00261094
-0.00283324
-0.00298463
-0.00307657
-0.00299598
-0.00293888
-0.00299779
-0.0029468
-0.0034891
-0.00356423
-0.0035091
-0.00336913
-0.00357208
-0.00360751
-0.003902
-0.00437762
-0.00475139
-0.00430066
-0.00397147
-0.00379632
-0.00307882
-0.00250014
-0.00193563
-0.00151278
-0.00134377
-0.00142277
-0.00179801
-0.00251985
-0.00362601
-0.00516163
-0.00714749
-0.009612
-0.0125878
-0.0160849
-0.0200615
-0.0244532
-0.0291446
-0.0339904
-0.0387436
-0.0432534
-0.047554
-0.0513211
-0.0541367
-0.000269599
-0.000739821
-0.000938579
-0.00142385
-0.0018825
-0.00233513
-0.00270497
-0.00285746
-0.00301398
-0.00306212
-0.00309281
-0.00300017
-0.00306675
-0.00294537
-0.00327436
-0.00359093
-0.00328278
-0.00339399
-0.0032789
-0.00349729
-0.00351455
-0.00441615
-0.00449653
-0.00444522
-0.00393525
-0.00371924
-0.00323461
-0.0023616
-0.00175995
-0.00123687
-0.000884701
-0.000775901
-0.000927669
-0.00138422
-0.00219097
-0.00339171
-0.00502487
-0.00711802
-0.00969417
-0.0127927
-0.0164157
-0.0205287
-0.0250594
-0.0299014
-0.0349004
-0.0398245
-0.0445008
-0.0489556
-0.0528225
-0.0557304
-0.000242867
-0.000753616
-0.000958873
-0.00145165
-0.00189978
-0.00231428
-0.00272361
-0.00282762
-0.00293007
-0.00300213
-0.00302792
-0.00298428
-0.00295484
-0.00297945
-0.00300605
-0.00343819
-0.0031281
-0.00325348
-0.00320662
-0.00321457
-0.00328342
-0.00370934
-0.00421892
-0.00401451
-0.00391993
-0.00370763
-0.00343162
-0.00243493
-0.00160982
-0.00100822
-0.00053613
-0.000247057
-0.000200255
-0.000424767
-0.000959915
-0.00185459
-0.00314758
-0.00488196
-0.00708074
-0.00977412
-0.0129939
-0.0167486
-0.0209973
-0.0256736
-0.0306636
-0.0358242
-0.0409137
-0.0457617
-0.050365
-0.0543398
-0.0573298
-0.000225308
-0.000755791
-0.000974233
-0.00144044
-0.00187538
-0.00223233
-0.0026827
-0.00279783
-0.00281527
-0.00284712
-0.00292915
-0.00290448
-0.00284727
-0.00274645
-0.00283365
-0.00312958
-0.00324007
-0.00286666
-0.00328989
-0.00316764
-0.00311967
-0.00327608
-0.00399318
-0.00378701
-0.00352964
-0.00335886
-0.00332896
-0.00261522
-0.0016158
-0.000837036
-0.000253534
0.000172644
0.00040129
0.000383794
8.82292e-05
-0.000527766
-0.00150806
-0.00289672
-0.0047302
-0.00703937
-0.00984852
-0.013195
-0.0170806
-0.0214712
-0.0262908
-0.0314374
-0.0367558
-0.0420163
-0.0470322
-0.0517876
-0.0558666
-0.0589421
-0.000192275
-0.000715344
-0.00102666
-0.00138809
-0.00189013
-0.00216262
-0.00257874
-0.00280981
-0.00273505
-0.00280083
-0.00282005
-0.00285579
-0.00280258
-0.0027024
-0.00260919
-0.00295973
-0.00317235
-0.00306073
-0.00294197
-0.00297983
-0.0029066
-0.00305329
-0.00347087
-0.00379623
-0.00364028
-0.0033134
-0.00280251
-0.00246929
-0.00168352
-0.000778778
-3.86137e-05
0.000512077
0.000889693
0.00105839
0.00097757
0.000609039
-8.53148e-05
-0.00115438
-0.00263649
-0.00457306
-0.00699092
-0.00992095
-0.0133931
-0.0174155
-0.0219457
-0.0269169
-0.0322173
-0.0377
-0.0431281
-0.0483172
-0.0532176
-0.0574091
-0.060562
-0.000153426
-0.000706036
-0.00105673
-0.00137206
-0.00188621
-0.00211093
-0.00254176
-0.00279716
-0.00276922
-0.00275591
-0.0027907
-0.00286396
-0.00284541
-0.00275036
-0.0025746
-0.00271183
-0.00308143
-0.00306357
-0.0029457
-0.00277742
-0.00257714
-0.00266075
-0.00306521
-0.00352005
-0.00336465
-0.00333742
-0.00270217
-0.00198731
-0.00147911
-0.000760677
8.16116e-05
0.000772669
0.0012872
0.00161516
0.00172607
0.00157957
0.0011401
0.000364709
-0.000791175
-0.00237025
-0.00440802
-0.00693895
-0.00998846
-0.0135919
-0.0177488
-0.0224264
-0.0275468
-0.0330077
-0.0386526
-0.0442542
-0.0496105
-0.0546614
-0.0589618
-0.0621956
-0.000137198
-0.00067205
-0.00108567
-0.00139782
-0.00184364
-0.00212541
-0.00246368
-0.00279335
-0.00280506
-0.0027797
-0.00279009
-0.00286562
-0.00278386
-0.00276318
-0.00264964
-0.00245274
-0.0029626
-0.00305485
-0.0029976
-0.00260619
-0.00244138
-0.00263397
-0.00296887
-0.00324618
-0.00341735
-0.00315618
-0.00283171
-0.00208745
-0.00141931
-0.000669042
0.000148974
0.000947281
0.0016
0.00207231
0.00235088
0.00240241
0.00219194
0.00167903
0.000824486
-0.000421453
-0.0020954
-0.0042387
-0.00688065
-0.0100547
-0.0137873
-0.0180858
-0.0229085
-0.0281848
-0.0338047
-0.0396184
-0.0453886
-0.0509182
-0.0561139
-0.0605303
-0.0638399
-0.000130949
-0.000629531
-0.00111372
-0.00138946
-0.00182776
-0.0021885
-0.00243758
-0.00284041
-0.00285831
-0.00284784
-0.00284564
-0.00289044
-0.00282565
-0.0027339
-0.00266865
-0.00245806
-0.00267395
-0.00319117
-0.00298218
-0.00246469
-0.00232473
-0.00244172
-0.00286641
-0.00334193
-0.00319474
-0.00309222
-0.00288797
-0.00218202
-0.00168332
-0.000909102
0.000185796
0.00106449
0.00182944
0.00243861
0.00286852
0.00309548
0.00308948
0.00281267
0.00222792
0.00129143
-4.25058e-05
-0.00181556
-0.00406203
-0.00681971
-0.010116
-0.0139841
-0.0184222
-0.0233963
-0.0288272
-0.034613
-0.0405918
-0.0465373
-0.0522352
-0.057581
-0.0621112
-0.0654977
-0.000122101
-0.000623392
-0.00111406
-0.00140029
-0.00184406
-0.00221377
-0.00253976
-0.00285022
-0.00290766
-0.00290543
-0.00292587
-0.00291429
-0.00287515
-0.00281296
-0.00265908
-0.0025201
-0.00255687
-0.00305941
-0.00312451
-0.00262862
-0.00227656
-0.00232767
-0.00261366
-0.00280978
-0.0032369
-0.00291725
-0.00262112
-0.00229163
-0.00145074
-0.00106748
-2.25634e-05
0.00112405
0.00199314
0.00272052
0.00329011
0.00367453
0.00385095
0.0037854
0.00344364
0.00278458
0.001768
0.000342192
-0.00152747
-0.00388167
-0.00675259
-0.0101767
-0.0141783
-0.0187619
-0.0238861
-0.0294784
-0.0354271
-0.0415781
-0.0476949
-0.0535668
-0.0590591
-0.0637069
-0.0671647
-0.000105249
-0.000601843
-0.00111361
-0.00142282
-0.00185474
-0.00227761
-0.00259238
-0.0028634
-0.00289411
-0.00288081
-0.00292389
-0.00288506
-0.00288199
-0.00284019
-0.00262288
-0.00239379
-0.00246594
-0.00285169
-0.00305358
-0.00260615
-0.00226503
-0.00225916
-0.00234474
-0.00266088
-0.00304359
-0.00281366
-0.00247713
-0.00212527
-0.00145368
-0.000672667
-7.39029e-05
0.00106101
0.00209646
0.00293306
0.00362493
0.00415223
0.00449191
0.00461569
0.00449184
0.00408303
0.00335139
0.00225104
0.000735713
-0.00123482
-0.0036944
-0.00668341
-0.0102331
-0.0143736
-0.0191015
-0.0243823
-0.0301336
-0.0362522
-0.0425726
-0.048867
-0.0549095
-0.0605513
-0.0653131
-0.0688474
-0.000106257
-0.000558315
-0.00109978
-0.00144912
-0.00187502
-0.00232525
-0.00265887
-0.00286622
-0.00285446
-0.0028678
-0.00288904
-0.00284632
-0.00279524
-0.00280183
-0.00258329
-0.00237764
-0.00226516
-0.00259252
-0.00286084
-0.00261332
-0.00208905
-0.00197884
-0.00202553
-0.00247478
-0.00290725
-0.0029024
-0.00217329
-0.00185219
-0.0013044
-0.000481963
0.000219067
0.00110805
0.00212839
0.00308234
0.0038862
0.00453962
0.00502631
0.00531921
0.00539117
0.00520725
0.00473305
0.0039254
0.00274361
0.00113465
-0.000934446
-0.00350404
-0.00660878
-0.0102888
-0.0145668
-0.0194452
-0.0248804
-0.0307975
-0.0370838
-0.0435803
-0.0500499
-0.0562663
-0.0620532
-0.0669358
-0.07054
-0.000108548
-0.000534304
-0.00108211
-0.00148267
-0.00193266
-0.00235988
-0.00270591
-0.00289869
-0.00286635
-0.00286251
-0.00288509
-0.00277496
-0.00275494
-0.00276092
-0.00250069
-0.00228514
-0.00228971
-0.0023133
-0.00267471
-0.00241534
-0.00202851
-0.0016789
-0.00190245
-0.00217621
-0.00259698
-0.00279503
-0.00225117
-0.00171501
-0.00128927
-0.000385478
0.000317533
0.00121894
0.00220604
0.00318152
0.00408474
0.00484987
0.00546637
0.00591084
0.00615756
0.00617613
0.0059337
0.00539095
0.00450969
0.00324257
0.00154206
-0.000629709
-0.00330707
-0.00653202
-0.0103407
-0.014762
-0.0197886
-0.0253848
-0.0314657
-0.0379266
-0.0445976
-0.0512465
-0.0576326
-0.063571
-0.0685692
-0.0722499
-0.000102045
-0.000510563
-0.00105451
-0.00150116
-0.00199935
-0.00241726
-0.00275514
-0.00289458
-0.00288409
-0.00286835
-0.00284435
-0.00274312
-0.00271418
-0.00270612
-0.00251999
-0.00222266
-0.00225557
-0.00229154
-0.00245539
-0.0023143
-0.00194135
-0.00174036
-0.00173817
-0.00207617
-0.00238797
-0.00240466
-0.00203025
-0.00146824
-0.00120932
-0.000362921
0.00019328
0.00120882
0.00227093
0.00327856
0.00423273
0.00509426
0.0058253
0.00640366
0.00680666
0.00700591
0.00697245
0.00666858
0.00605979
0.0051013
0.00375059
0.00195515
-0.000317365
-0.00310656
-0.00644999
-0.0103927
-0.014955
-0.0201361
-0.0258914
-0.0321431
-0.0387771
-0.0456275
-0.0524524
-0.0590143
-0.0650988
-0.0702203
-0.0739722
-9.62211e-05
-0.000487299
-0.00100984
-0.00153227
-0.00205534
-0.00247769
-0.0027776
-0.002908
-0.00288873
-0.0028942
-0.00282158
-0.0027272
-0.00269324
-0.00266845
-0.00245886
-0.00221279
-0.00208546
-0.0023039
-0.00228927
-0.00219643
-0.00198249
-0.00176518
-0.00169864
-0.00193253
-0.00199229
-0.00211191
-0.00193875
-0.00132848
-0.000870154
-0.000440045
0.000184708
0.000994547
0.00226249
0.00335506
0.00435833
0.00528763
0.00611556
0.00681117
0.00735222
0.00771292
0.00786594
0.00777768
0.00741491
0.00673677
0.00570263
0.00426531
0.00237665
-1.48824e-07
-0.00289929
-0.00636639
-0.0104409
-0.0151499
-0.0204838
-0.0264048
-0.0328261
-0.0396385
-0.0466656
-0.0536732
-0.0604059
-0.0666439
-0.0718842
-0.075708
-8.83019e-05
-0.000462574
-0.00100538
-0.00154506
-0.00211223
-0.00252276
-0.00280493
-0.00292876
-0.00290893
-0.00289833
-0.00282211
-0.00272913
-0.00271123
-0.00267018
-0.00247124
-0.00222447
-0.00200243
-0.00206693
-0.00207922
-0.00204126
-0.00190546
-0.00182855
-0.00164752
-0.00167604
-0.00167689
-0.00176906
-0.00180519
-0.00116631
-0.000831954
-0.000372092
0.000263981
0.000889734
0.00213642
0.00338404
0.00445665
0.00544606
0.00634999
0.00714595
0.00780804
0.00831144
0.00863108
0.00873532
0.00859478
0.00817005
0.00742403
0.00631165
0.00478912
0.00280415
0.000324997
-0.00268875
-0.00627762
-0.0104892
-0.0153431
-0.020836
-0.0269216
-0.0335178
-0.0405063
-0.0477172
-0.0549035
-0.0618141
-0.0682012
-0.0735621
-0.0774572
-7.88095e-05
-0.00043305
-0.00101122
-0.00156907
-0.00217975
-0.00254412
-0.00282924
-0.00294466
-0.00293937
-0.00291221
-0.00279017
-0.00271044
-0.00270968
-0.00264447
-0.00250275
-0.00222475
-0.00199865
-0.00186916
-0.002021
-0.00199437
-0.00189215
-0.00180456
-0.00149861
-0.00135117
-0.00151573
-0.00162994
-0.00163388
-0.00132208
-0.000607476
-0.000304922
0.000261832
0.00111043
0.00212982
0.00338228
0.00451886
0.00557066
0.00654134
0.00742068
0.00818692
0.00881558
0.00928262
0.00955895
0.00961691
0.00942125
0.00893589
0.00811991
0.00693042
0.00531975
0.0032404
0.000654858
-0.00247154
-0.0061871
-0.010534
-0.0155387
-0.0211894
-0.0274451
-0.0342141
-0.0413859
-0.0487773
-0.0561497
-0.0632339
-0.0697722
-0.0752535
-0.0792252
-6.81726e-05
-0.000397017
-0.00100173
-0.00162479
-0.00220777
-0.00256374
-0.00284352
-0.0029562
-0.00296096
-0.00292757
-0.00278209
-0.00267052
-0.00265868
-0.00257639
-0.00245162
-0.00216503
-0.00191061
-0.00170898
-0.00185265
-0.00197687
-0.00200766
-0.00181758
-0.00160966
-0.00119857
-0.00136037
-0.00133585
-0.00156071
-0.00117458
-0.000506879
-0.000203987
0.000343652
0.00117264
0.00221834
0.00339523
0.00455751
0.0056624
0.00669475
0.00764614
0.00850094
0.00923826
0.00983499
0.0102638
0.0104993
0.0105084
0.0102587
0.00971112
0.00882614
0.00755689
0.00585983
0.0036824
0.000992495
-0.00225073
-0.00609156
-0.0105794
-0.0157333
-0.0215473
-0.0279709
-0.03492
-0.0422722
-0.049852
-0.0574069
-0.064667
-0.0713562
-0.0769637
-0.0810036
-6.15439e-05
-0.000362143
-0.00100631
-0.00164529
-0.00223184
-0.00258055
-0.00285041
-0.00297381
-0.00298008
-0.00292485
-0.00275437
-0.00265852
-0.00256057
-0.00252427
-0.00239858
-0.00214706
-0.00181439
-0.0016628
-0.00168112
-0.00191829
-0.00205455
-0.00186744
-0.00153373
-0.00117745
-0.00111127
-0.00122324
-0.0013222
-0.00106727
-0.000394523
-6.48562e-05
0.000402581
0.00131192
0.00231967
0.0034627
0.00459227
0.00573002
0.00681364
0.0078288
0.00876037
0.00959144
0.0103013
0.0108645
0.0112575
0.01145
0.0114112
0.0111063
0.0104972
0.0095409
0.00819352
0.00640652
0.00413294
0.00133521
-0.00202338
-0.00599468
-0.0106219
-0.0159305
-0.0219056
-0.0285042
-0.0356307
-0.0431712
-0.0509363
-0.0586771
-0.0661124
-0.0729585
-0.0786845
-0.0827999
-5.67189e-05
-0.000341233
-0.00100782
-0.0016703
-0.00226682
-0.00259828
-0.00284564
-0.00298562
-0.00300339
-0.0029202
-0.00272704
-0.00263775
-0.00250071
-0.00245243
-0.00238383
-0.00213189
-0.00177656
-0.00158861
-0.0017169
-0.00189687
-0.00200237
-0.00187411
-0.00140606
-0.0010897
-0.000898372
-0.000995
-0.00100768
-0.000920006
-0.000380126
0.000195332
0.000591506
0.00139811
0.00242662
0.00351948
0.00464675
0.00578598
0.00690499
0.00797406
0.00897273
0.00988522
0.0106935
0.0113745
0.0119067
0.012262
0.0124121
0.0123246
0.0119651
0.0112925
0.0102665
0.00883763
0.00696246
0.00458965
0.00168571
-0.00179287
-0.00589323
-0.0106652
-0.0161262
-0.022269
-0.0290403
-0.036352
-0.044078
-0.0520325
-0.0599587
-0.0675754
-0.0745712
-0.0804232
-0.0846108
-5.63303e-05
-0.000332471
-0.00101062
-0.00171593
-0.00230392
-0.00261283
-0.00284525
-0.00299237
-0.00301311
-0.00291491
-0.00273942
-0.00261529
-0.00246026
-0.00235642
-0.00234215
-0.00210611
-0.00176827
-0.00151625
-0.0016406
-0.00188686
-0.00196837
-0.00184599
-0.00140644
-0.00095111
-0.000724576
-0.000704939
-0.000917166
-0.000731582
-0.000112807
0.000394681
0.00098458
0.00166721
0.0025066
0.00358174
0.00469306
0.00583773
0.00697747
0.00808805
0.00914397
0.0101276
0.0110217
0.0118058
0.0124605
0.0129599
0.013278
0.0133854
0.0132496
0.0128339
0.0120993
0.0110004
0.00949161
0.00752547
0.0050551
0.00204089
-0.00155614
-0.00579075
-0.0107051
-0.0163248
-0.0226333
-0.0295846
-0.037079
-0.0449951
-0.0531389
-0.0612571
-0.0690481
-0.0762013
-0.0821763
-0.0864397
-5.58782e-05
-0.000335281
-0.00101649
-0.00175121
-0.00232385
-0.00263134
-0.00284801
-0.00299344
-0.00302305
-0.00291293
-0.00273974
-0.00261733
-0.00245321
-0.00232785
-0.00228032
-0.00206371
-0.00178259
-0.00155439
-0.00155268
-0.00184285
-0.00193613
-0.00176103
-0.00138115
-0.000955908
-0.000635686
-0.000479825
-0.000691889
-0.000577726
-5.67176e-05
0.000726683
0.00126519
0.00183591
0.00255541
0.0036096
0.0047249
0.00587783
0.00703424
0.00817586
0.00927966
0.0103251
0.0112945
0.0121689
0.0129311
0.0135578
0.0140249
0.0143057
0.0143706
0.0141851
0.0137145
0.0129151
0.0117448
0.0101536
0.00809799
0.0055264
0.00240374
-0.00131668
-0.00568326
-0.0107461
-0.0165224
-0.0230035
-0.0301326
-0.0378146
-0.0459206
-0.0542605
-0.0625647
-0.0705375
-0.0778454
-0.0839473
-0.0882808
-5.34767e-05
-0.000336136
-0.00102683
-0.00176848
-0.00234072
-0.00264431
-0.00285013
-0.00298658
-0.00303521
-0.00292379
-0.00274168
-0.00259573
-0.00244165
-0.00230666
-0.00224037
-0.00205369
-0.0017791
-0.00161567
-0.00154937
-0.00182809
-0.00190336
-0.00164909
-0.00134881
-0.00092566
-0.000544508
-0.000339981
-0.000368045
-0.000450776
0.000106815
0.000918289
0.00160606
0.00202865
0.00258384
0.00357923
0.00473512
0.00590314
0.00707635
0.00824388
0.00938607
0.0104836
0.0115186
0.0124724
0.0133292
0.014068
0.0146669
0.0151019
0.0153455
0.0153668
0.0151328
0.0146049
0.013742
0.012498
0.0108258
0.00867738
0.0060065
0.00277077
-0.00107066
-0.0055749
-0.0107842
-0.0167238
-0.0233752
-0.0306872
-0.0385565
-0.0468595
-0.0553903
-0.0638882
-0.0720402
-0.079507
-0.0857302
-0.0901416
-5.39605e-05
-0.000333551
-0.00103493
-0.00178052
-0.00235938
-0.00266165
-0.00284957
-0.00297972
-0.00303569
-0.00293433
-0.00274284
-0.00258779
-0.00239271
-0.00228845