/*--------------------------------*- C++ -*----------------------------------*\
| =========                 |                                                 |
| \\      /  F ield         | OpenFOAM: The Open Source CFD Toolbox           |
|  \\    /   O peration     | Version:  2212                                  |
|   \\  /    A nd           | Website:  www.openfoam.com                      |
|    \\/     M anipulation  |                                                 |
\*---------------------------------------------------------------------------*/
FoamFile
{
    version     2.0;
    format      ascii;
    arch        "LSB;label=32;scalar=64";
    class       surfaceScalarField;
    location    "20";
    object      phi;
}
// * * * * * * * * * * * * * * * * * * * * * * * * * * * * * * * * * * * * * //

dimensions      [0 3 -1 0 0 0 0];

oriented        oriented;

internalField   nonuniform List<scalar> 
328790
(
4.24095e-06
-6.74601
7.89039e-06
-6.29132
4.06602e-06
-6.74602
1.15613e-05
-5.86733
7.66311e-06
-6.29132
3.83365e-06
-6.74602
1.24444e-05
-5.47169
1.15468e-05
-5.86733
7.34157e-06
-6.29133
3.27496e-06
-6.74603
1.43769e-05
-5.10296
1.28361e-05
-5.47169
1.19012e-05
-5.86733
7.57833e-06
-6.29133
2.83856e-06
-6.74603
1.61071e-05
-4.75886
1.46779e-05
-5.10297
1.41173e-05
-5.47169
1.26901e-05
-5.86734
7.77817e-06
-6.29133
2.86702e-06
-6.74603
1.65988e-05
-4.43806
1.66637e-05
-4.75886
1.53016e-05
-5.10297
1.56598e-05
-5.4717
1.35115e-05
-5.86735
8.07852e-06
-6.29134
2.959e-06
-6.74603
1.98012e-05
-4.13897
1.74117e-05
-4.43806
1.76933e-05
-4.75886
1.61162e-05
-5.10297
1.73666e-05
-5.4717
1.46774e-05
-5.86735
8.48944e-06
-6.29135
3.66529e-06
-6.74604
2.36787e-05
-3.85989
2.0884e-05
-4.13898
1.96315e-05
-4.43806
1.95656e-05
-4.75886
1.77613e-05
-5.10297
1.92469e-05
-5.47171
1.61054e-05
-5.86736
9.2842e-06
-6.29135
4.42851e-06
-6.74604
2.48398e-05
-3.59965
2.50896e-05
-3.8599
2.47091e-05
-4.13898
2.24345e-05
-4.43806
2.21279e-05
-4.75887
2.02332e-05
-5.10297
2.14103e-05
-5.47171
1.8063e-05
-5.86737
1.12414e-05
-6.29136
5.60659e-06
-6.74605
2.4474e-05
-3.35708
2.5871e-05
-3.59965
2.92604e-05
-3.8599
2.80921e-05
-4.13899
2.59369e-05
-4.43807
2.49333e-05
-4.75887
2.29745e-05
-5.10297
2.33199e-05
-5.47172
2.00816e-05
-5.86738
1.26112e-05
-6.29136
7.2191e-06
-6.74606
2.45522e-05
-3.13074
2.5559e-05
-3.35708
2.82496e-05
-3.59965
3.20437e-05
-3.85991
3.15739e-05
-4.13899
2.88724e-05
-4.43807
2.73063e-05
-4.75888
2.65658e-05
-5.10297
2.47122e-05
-5.47172
2.11822e-05
-5.86739
1.44616e-05
-6.29137
8.98506e-06
-6.74606
2.43121e-05
-2.9197
2.5824e-05
-3.13074
2.84481e-05
-3.35708
2.97216e-05
-3.59964
3.43755e-05
-3.85991
3.43152e-05
-4.139
3.15761e-05
-4.43807
3.08628e-05
-4.75888
3.01381e-05
-5.10298
2.70262e-05
-5.47173
2.23009e-05
-5.86739
1.62405e-05
-6.29138
9.90945e-06
-6.74607
2.41151e-05
-2.72289
2.58181e-05
-2.9197
2.92675e-05
-3.13074
3.04094e-05
-3.35708
3.19689e-05
-3.59964
3.62161e-05
-3.85991
3.66685e-05
-4.139
3.47237e-05
-4.43808
3.45421e-05
-4.75889
3.3774e-05
-5.10299
2.95442e-05
-5.47173
2.29692e-05
-5.8674
1.79073e-05
-6.29139
1.05329e-05
-6.74608
2.42617e-05
-2.53937
2.54427e-05
-2.72289
2.99057e-05
-2.9197
3.12098e-05
-3.13074
3.26188e-05
-3.35708
3.47487e-05
-3.59964
3.75485e-05
-3.85991
3.73364e-05
-4.139
3.74369e-05
-4.43808
3.83193e-05
-4.75889
3.62124e-05
-5.10299
3.08323e-05
-5.47174
2.37665e-05
-5.86741
1.88332e-05
-6.2914
1.25221e-05
-6.7461
2.0876e-05
-2.36814
2.54361e-05
-2.53937
2.86436e-05
-2.72289
3.26906e-05
-2.9197
3.33254e-05
-3.13074
3.4656e-05
-3.35708
3.65655e-05
-3.59964
3.8102e-05
-3.85991
3.90852e-05
-4.13901
4.08961e-05
-4.43808
4.14448e-05
-4.7589
3.83079e-05
-5.103
3.23961e-05
-5.47175
2.53222e-05
-5.86741
2.06464e-05
-6.2914
1.47534e-05
-6.74611
1.49796e-05
-2.20854
2.21183e-05
-2.36814
2.78785e-05
-2.53937
3.14107e-05
-2.72289
3.50725e-05
-2.9197
3.55611e-05
-3.13074
3.58063e-05
-3.35708
3.8433e-05
-3.59964
4.01659e-05
-3.85991
4.06135e-05
-4.13901
4.4585e-05
-4.43809
4.43039e-05
-4.7589
4.08058e-05
-5.10301
3.53113e-05
-5.47176
2.59834e-05
-5.86742
2.26326e-05
-6.29141
1.52874e-05
-6.74613
1.41458e-05
-2.05975
1.62064e-05
-2.20854
2.46919e-05
-2.36814
2.9726e-05
-2.53937
3.4091e-05
-2.72289
3.70173e-05
-2.9197
3.62632e-05
-3.13074
3.83405e-05
-3.35708
4.05682e-05
-3.59964
4.15547e-05
-3.85991
4.29558e-05
-4.139
4.70296e-05
-4.43809
4.69461e-05
-4.75891
4.2824e-05
-5.10302
3.57071e-05
-5.47177
2.77878e-05
-5.86742
2.48238e-05
-6.29142
1.65614e-05
-6.74614
1.47008e-05
-1.92083
1.48847e-05
-2.05975
2.03672e-05
-2.20853
2.74075e-05
-2.36814
3.17573e-05
-2.53937
3.58799e-05
-2.72288
3.81619e-05
-2.91971
3.71917e-05
-3.13074
4.04107e-05
-3.35708
4.23321e-05
-3.59964
4.33241e-05
-3.85991
4.60256e-05
-4.139
4.96763e-05
-4.43809
4.95093e-05
-4.75892
4.45133e-05
-5.10302
3.85105e-05
-5.47178
2.90361e-05
-5.86743
2.76855e-05
-6.29143
1.64093e-05
-6.74616
1.29334e-05
-1.79142
1.59093e-05
-1.92084
1.78835e-05
-2.05975
2.38047e-05
-2.20853
3.00472e-05
-2.36813
3.42135e-05
-2.53936
3.75701e-05
-2.72288
3.8567e-05
-2.91971
3.91521e-05
-3.13074
4.27403e-05
-3.35708
4.46041e-05
-3.59964
4.6494e-05
-3.85992
4.81321e-05
-4.139
5.22861e-05
-4.4381
5.12776e-05
-4.75892
4.49085e-05
-5.10303
3.78995e-05
-5.47179
3.05933e-05
-5.86743
2.92191e-05
-6.29145
1.549e-05
-6.74618
1.54723e-05
-1.67065
1.39315e-05
-1.79142
1.74202e-05
-1.92084
1.98039e-05
-2.05974
2.67102e-05
-2.20852
3.35189e-05
-2.36813
3.71068e-05
-2.53936
3.92215e-05
-2.72288
3.9431e-05
-2.91971
4.19274e-05
-3.13074
4.52182e-05
-3.35708
4.68536e-05
-3.59964
4.81653e-05
-3.85992
5.02695e-05
-4.139
5.34397e-05
-4.4381
5.18726e-05
-4.75893
4.50773e-05
-5.10304
3.82526e-05
-5.4718
3.13888e-05
-5.86743
3.01539e-05
-6.29146
1.46593e-05
-6.74619
1.42263e-05
-1.55805
1.67392e-05
-1.67065
1.74048e-05
-1.79142
1.98315e-05
-1.92084
2.17097e-05
-2.05974
3.02673e-05
-2.20852
3.59255e-05
-2.36813
3.95814e-05
-2.53936
3.94658e-05
-2.72288
4.11361e-05
-2.91971
4.40433e-05
-3.13074
4.71918e-05
-3.35709
4.88194e-05
-3.59964
5.03307e-05
-3.85992
5.21755e-05
-4.139
5.52589e-05
-4.4381
5.1423e-05
-4.75894
4.56078e-05
-5.10304
3.8692e-05
-5.4718
3.27505e-05
-5.86744
3.11388e-05
-6.29148
1.40767e-05
-6.7462
1.04149e-05
-1.45304
1.48457e-05
-1.55805
1.71021e-05
-1.67065
2.00539e-05
-1.79142
2.34086e-05
-1.92084
2.55301e-05
-2.05973
3.33528e-05
-2.20852
3.85257e-05
-2.36813
3.94514e-05
-2.53936
4.0972e-05
-2.72288
4.27346e-05
-2.9197
4.65907e-05
-3.13074
4.89933e-05
-3.35709
5.09595e-05
-3.59964
5.22069e-05
-3.85992
5.3822e-05
-4.139
5.55759e-05
-4.4381
5.14644e-05
-4.75894
4.64677e-05
-5.10305
4.04183e-05
-5.47181
3.35946e-05
-5.86744
3.06156e-05
-6.29149
1.40059e-05
-6.74622
8.55402e-06
-1.35506
1.11372e-05
-1.45304
1.75968e-05
-1.55805
1.85135e-05
-1.67065
2.19988e-05
-1.79141
2.71156e-05
-1.92084
2.93212e-05
-2.05973
3.73708e-05
-2.20852
3.92849e-05
-2.36813
3.83399e-05
-2.53936
4.27991e-05
-2.72288
4.50299e-05
-2.9197
4.87882e-05
-3.13074
5.11609e-05
-3.35709
5.28309e-05
-3.59964
5.41914e-05
-3.85992
5.52244e-05
-4.139
5.53663e-05
-4.43811
5.05233e-05
-4.75895
4.80898e-05
-5.10306
4.02513e-05
-5.47182
3.44134e-05
-5.86744
2.83433e-05
-6.29151
1.36783e-05
-6.74623
7.60097e-06
-1.26377
8.25661e-06
-1.35505
1.22519e-05
-1.45303
1.89902e-05
-1.55805
2.1613e-05
-1.67065
2.57207e-05
-1.79141
3.0193e-05
-1.92084
3.38178e-05
-2.05973
4.05566e-05
-2.20852
4.07863e-05
-2.36813
3.98111e-05
-2.53936
4.34378e-05
-2.72288
4.76306e-05
-2.9197
5.08164e-05
-3.13074
5.29959e-05
-3.35709
5.48608e-05
-3.59965
5.59616e-05
-3.85992
5.63995e-05
-4.139
5.451e-05
-4.43811
5.18198e-05
-4.75895
4.78292e-05
-5.10307
4.15026e-05
-5.47183
3.5104e-05
-5.86745
2.73618e-05
-6.29152
1.39151e-05
-6.74625
1.11329e-05
-1.17866
6.76351e-06
-1.26377
8.49244e-06
-1.35505
1.51294e-05
-1.45303
2.03372e-05
-1.55805
2.38988e-05
-1.67065
3.00947e-05
-1.79141
3.27991e-05
-1.92084
3.7505e-05
-2.05972
4.19782e-05
-2.20852
4.20738e-05
-2.36814
4.13879e-05
-2.53936
4.48757e-05
-2.72288
4.99338e-05
-2.9197
5.28124e-05
-3.13074
5.50411e-05
-3.35709
5.66992e-05
-3.59965
5.7781e-05
-3.85992
5.78888e-05
-4.139
5.59335e-05
-4.43812
5.08528e-05
-4.75895
4.89748e-05
-5.10308
4.27542e-05
-5.47183
3.50538e-05
-5.86746
2.64378e-05
-6.29153
1.36372e-05
-6.74626
8.81361e-06
-1.09918
1.17435e-05
-1.17866
7.52288e-06
-1.26377
1.1196e-05
-1.35504
1.82725e-05
-1.45302
2.26906e-05
-1.55805
2.66461e-05
-1.67064
3.38909e-05
-1.79141
3.28079e-05
-1.92083
4.07582e-05
-2.05972
4.45135e-05
-2.20852
4.288e-05
-2.36814
4.23983e-05
-2.53935
4.64552e-05
-2.72288
5.27231e-05
-2.9197
5.4671e-05
-3.13074
5.68949e-05
-3.35709
5.8615e-05
-3.59965
5.95007e-05
-3.85992
5.91665e-05
-4.139
5.64268e-05
-4.43812
5.12892e-05
-4.75895
4.88362e-05
-5.10308
4.27034e-05
-5.47184
3.59063e-05
-5.86747
2.55642e-05
-6.29155
1.5034e-05
-6.74627
9.41938e-06
-1.02499
1.02757e-05
-1.09918
1.09012e-05
-1.17867
7.86934e-06
-1.26377
1.34057e-05
-1.35504
1.99326e-05
-1.45302
2.36428e-05
-1.55805
2.73805e-05
-1.67064
3.59207e-05
-1.79142
3.27141e-05
-1.92083
4.33911e-05
-2.05972
4.5634e-05
-2.20853
4.42047e-05
-2.36814
4.50651e-05
-2.53935
4.88286e-05
-2.72287
5.37763e-05
-2.9197
5.65713e-05
-3.13074
5.88494e-05
-3.35709
6.04404e-05
-3.59965
6.12245e-05
-3.85992
6.06758e-05
-4.13901
5.70178e-05
-4.43813
5.13951e-05
-4.75896
5.00937e-05
-5.10309
4.35138e-05
-5.47185
3.73768e-05
-5.86748
2.48187e-05
-6.29156
1.39297e-05
-6.74629
7.2106e-06
-0.956089
8.75951e-06
-1.02499
9.9317e-06
-1.09918
1.21233e-05
-1.17867
8.89226e-06
-1.26376
1.62476e-05
-1.35504
2.23747e-05
-1.45302
2.68116e-05
-1.55805
2.97051e-05
-1.67063
3.93348e-05
-1.79142
3.58897e-05
-1.92082
4.44254e-05
-2.05972
4.52718e-05
-2.20853
4.48138e-05
-2.36814
4.67839e-05
-2.53935
5.15182e-05
-2.72287
5.55462e-05
-2.9197
5.85103e-05
-3.13074
6.0702e-05
-3.35709
6.22769e-05
-3.59965
6.29955e-05
-3.85992
6.20102e-05
-4.13901
5.79076e-05
-4.43813
5.56591e-05
-4.75896
5.00936e-05
-5.1031
4.44652e-05
-5.47186
3.75876e-05
-5.86749
2.58769e-05
-6.29157
1.33623e-05
-6.7463
4.38774e-06
-0.891492
8.16727e-06
-0.956089
9.89371e-06
-1.02499
9.19585e-06
-1.09918
1.33312e-05
-1.17867
1.17301e-05
-1.26376
1.90241e-05
-1.35503
2.57846e-05
-1.45302
3.03919e-05
-1.55805
3.31704e-05
-1.67062
4.12229e-05
-1.79143
3.88033e-05
-1.92081
4.59346e-05
-2.05972
4.58818e-05
-2.20853
4.69231e-05
-2.36814
4.89112e-05
-2.53935
5.34749e-05
-2.72287
5.75423e-05
-2.9197
6.0346e-05
-3.13074
6.25818e-05
-3.35709
6.41613e-05
-3.59965
6.46086e-05
-3.85993
6.36042e-05
-4.13902
6.03979e-05
-4.43814
5.67396e-05
-4.75897
5.28649e-05
-5.1031
4.65639e-05
-5.47186
3.94084e-05
-5.8675
2.64697e-05
-6.29158
1.57173e-05
-6.74632
2.47322e-06
-0.831506
4.75334e-06
-0.891488
9.24337e-06
-0.956088
1.14295e-05
-1.02499
1.12071e-05
-1.09918
1.3479e-05
-1.17868
1.6344e-05
-1.26375
2.04845e-05
-1.35503
2.77392e-05
-1.45302
3.20005e-05
-1.55805
3.73859e-05
-1.67062
4.03067e-05
-1.79143
4.1607e-05
-1.92081
4.60434e-05
-2.05972
4.62098e-05
-2.20853
4.86491e-05
-2.36814
5.13234e-05
-2.53935
5.58964e-05
-2.72287
5.93347e-05
-2.9197
6.22427e-05
-3.13074
6.44969e-05
-3.35709
6.58669e-05
-3.59965
6.63186e-05
-3.85993
6.53443e-05
-4.13902
6.22629e-05
-4.43814
6.00555e-05
-4.75898
5.59494e-05
-5.10311
4.8142e-05
-5.47187
4.14959e-05
-5.86752
2.77639e-05
-6.29159
1.3609e-05
-6.74633
3.79719e-06
-0.775402
2.07395e-06
-0.831503
3.37621e-06
-0.891482
8.24351e-06
-0.956085
1.12039e-05
-1.02499
1.38851e-05
-1.09918
1.54592e-05
-1.17868
1.88746e-05
-1.26375
2.22675e-05
-1.35502
2.82492e-05
-1.45301
3.22687e-05
-1.55804
3.97453e-05
-1.67062
4.06496e-05
-1.79143
4.4002e-05
-1.92081
4.54773e-05
-2.05972
4.66106e-05
-2.20853
5.01304e-05
-2.36814
5.38867e-05
-2.53934
5.82329e-05
-2.72287
6.13003e-05
-2.9197
6.41408e-05
-3.13074
6.62358e-05
-3.35709
6.76497e-05
-3.59965
6.80505e-05
-3.85993
6.7159e-05
-4.13903
6.43415e-05
-4.43815
6.22943e-05
-4.75898
5.75454e-05
-5.10312
5.04753e-05
-5.47188
4.16933e-05
-5.86753
2.76424e-05
-6.29161
1.49071e-05
-6.74635
2.34465e-06
-0.723175
3.46112e-06
-0.775403
2.78307e-06
-0.831503
4.44131e-06
-0.891479
1.11238e-05
-0.956085
1.11342e-05
-1.02499
1.73427e-05
-1.09918
1.91908e-05
-1.17868
2.13795e-05
-1.26375
2.40819e-05
-1.35502
3.03154e-05
-1.45301
3.33526e-05
-1.55804
4.15186e-05
-1.67062
4.09981e-05
-1.79143
4.51455e-05
-1.92081
4.49271e-05
-2.05972
4.81137e-05
-2.20852
5.17362e-05
-2.36814
5.66241e-05
-2.53934
6.03309e-05
-2.72286
6.31902e-05
-2.9197
6.58877e-05
-3.13074
6.80428e-05
-3.35709
6.94205e-05
-3.59965
6.98696e-05
-3.85993
6.8807e-05
-4.13903
6.67788e-05
-4.43815
6.36127e-05
-4.75899
5.89968e-05
-5.10313
5.13713e-05
-5.47189
4.20211e-05
-5.86755
2.94299e-05
-6.29162
1.42339e-05
-6.74636
1.07674e-06
-0.674423
1.91457e-06
-0.723174
2.62589e-06
-0.775403
3.52432e-06
-0.831502
7.04322e-06
-0.891475
1.12323e-05
-0.956085
1.31161e-05
-1.02498
1.98564e-05
-1.09918
2.33557e-05
-1.17868
2.53445e-05
-1.26375
2.87627e-05
-1.35502
3.29659e-05
-1.45301
3.62362e-05
-1.55803
4.17694e-05
-1.67062
4.11852e-05
-1.79142
4.56533e-05
-1.92081
4.45356e-05
-2.05972
4.9925e-05
-2.20852
5.33585e-05
-2.36813
5.92262e-05
-2.53934
6.20981e-05
-2.72286
6.49403e-05
-2.91969
6.76872e-05
-3.13074
6.98364e-05
-3.35709
7.12749e-05
-3.59966
7.14915e-05
-3.85994
7.06133e-05
-4.13904
6.81776e-05
-4.43816
6.50246e-05
-4.75899
6.00109e-05
-5.10314
5.23185e-05
-5.4719
4.29113e-05
-5.86756
2.84377e-05
-6.29164
1.57577e-05
-6.74638
2.25267e-06
-0.628965
6.63978e-07
-0.674422
1.80008e-06
-0.723173
1.70629e-06
-0.775401
2.64615e-06
-0.831497
9.51995e-06
-0.891473
9.28677e-06
-0.956081
1.47479e-05
-1.02498
2.11225e-05
-1.09918
2.53018e-05
-1.17868
3.01336e-05
-1.26376
3.44121e-05
-1.35502
3.54785e-05
-1.45301
3.78231e-05
-1.55803
4.0318e-05
-1.67062
4.2526e-05
-1.79142
4.63566e-05
-1.92081
4.6324e-05
-2.05971
5.04485e-05
-2.20852
5.56629e-05
-2.36813
6.09975e-05
-2.53934
6.37084e-05
-2.72286
6.67291e-05
-2.91969
6.94818e-05
-3.13074
7.17088e-05
-3.35709
7.29192e-05
-3.59966
7.33058e-05
-3.85994
7.22818e-05
-4.13904
6.98932e-05
-4.43816
6.64349e-05
-4.759
6.1332e-05
-5.10315
5.33808e-05
-5.47191
4.35672e-05
-5.86758
3.00227e-05
-6.29165
1.70294e-05
-6.74639
3.04633e-06
-0.586584
3.09755e-06
-0.628968
3.51985e-06
-0.674424
3.74726e-06
-0.723175
2.03441e-06
-0.775401
5.12059e-06
-0.831493
1.2115e-05
-0.891476
1.05655e-05
-0.956077
1.64891e-05
-1.02497
2.32643e-05
-1.09917
2.70557e-05
-1.17867
3.27839e-05
-1.26375
4.04636e-05
-1.35502
3.81321e-05
-1.45301
3.79337e-05
-1.55802
4.02786e-05
-1.67062
4.32673e-05
-1.79142
4.53743e-05
-1.92081
4.8581e-05
-2.05971
5.21256e-05
-2.20851
5.83634e-05
-2.36813
6.23413e-05
-2.53934
6.54774e-05
-2.72286
6.85108e-05
-2.91969
7.13497e-05
-3.13073
7.33681e-05
-3.35709
7.47634e-05
-3.59966
7.50007e-05
-3.85994
7.39426e-05
-4.13905
7.14686e-05
-4.43817
6.79146e-05
-4.75901
6.24816e-05
-5.10316
5.43767e-05
-5.47192
4.44055e-05
-5.86759
3.1017e-05
-6.29166
1.77086e-05
-6.74641
3.73151e-06
-0.547046
2.9616e-06
-0.586584
3.82254e-06
-0.628968
4.50536e-06
-0.674425
4.63599e-06
-0.723178
5.92068e-06
-0.775402
9.25012e-06
-0.83149
1.18961e-05
-0.891477
1.34215e-05
-0.956074
2.02008e-05
-1.02497
2.49383e-05
-1.09917
2.77087e-05
-1.17867
3.44512e-05
-1.26375
4.11531e-05
-1.35503
4.07157e-05
-1.45301
3.86946e-05
-1.55802
4.03361e-05
-1.67061
4.35357e-05
-1.79142
4.67678e-05
-1.92081
4.99404e-05
-2.05971
5.50281e-05
-2.20851
5.94415e-05
-2.36812
6.3803e-05
-2.53934
6.71617e-05
-2.72286
7.03609e-05
-2.91969
7.30077e-05
-3.13073
7.52269e-05
-3.35709
7.64848e-05
-3.59966
7.66859e-05
-3.85995
7.55762e-05
-4.13905
7.31384e-05
-4.43817
6.92807e-05
-4.75901
6.36479e-05
-5.10317
5.5391e-05
-5.47193
4.52828e-05
-5.8676
3.22361e-05
-6.29168
1.73828e-05
-6.74643
3.03109e-06
-0.510189
3.09655e-06
-0.547047
3.3096e-06
-0.586583
2.5147e-06
-0.628966
4.60484e-06
-0.674425
3.45673e-06
-0.723175
6.80364e-06
-0.775399
1.09724e-05
-0.831489
1.08202e-05
-0.891474
1.49678e-05
-0.956069
2.26253e-05
-1.02497
2.46909e-05
-1.09917
2.76986e-05
-1.17866
3.7072e-05
-1.26374
4.15769e-05
-1.35503
4.25122e-05
-1.45302
3.88098e-05
-1.55802
4.10993e-05
-1.67061
4.42408e-05
-1.79141
4.90089e-05
-1.9208
5.25767e-05
-2.05971
5.69373e-05
-2.20851
6.1024e-05
-2.36812
6.54709e-05
-2.53933
6.89664e-05
-2.72286
7.20017e-05
-2.91969
7.48626e-05
-3.13073
7.69616e-05
-3.35709
7.81974e-05
-3.59966
7.83534e-05
-3.85995
7.72944e-05
-4.13905
7.46654e-05
-4.43818
7.06434e-05
-4.75902
6.48041e-05
-5.10318
5.64696e-05
-5.47195
4.6034e-05
-5.86762
3.26154e-05
-6.29169
1.77378e-05
-6.74645
4.43628e-06
-0.475791
2.33633e-06
-0.510188
1.79337e-06
-0.547045
3.52963e-06
-0.586584
5.01546e-06
-0.628966
4.0047e-06
-0.674425
5.7103e-06
-0.723174
8.85438e-06
-0.775397
1.19744e-05
-0.83149
1.43346e-05
-0.891474
1.78533e-05
-0.956064
2.2936e-05
-1.02496
2.47491e-05
-1.09917
2.88107e-05
-1.17865
3.91414e-05
-1.26374
4.35936e-05
-1.35503
4.21368e-05
-1.45302
3.9685e-05
-1.55802
4.06031e-05
-1.67061
4.49033e-05
-1.79141
5.21483e-05
-1.9208
5.38024e-05
-2.0597
5.88742e-05
-2.20851
6.29611e-05
-2.36812
6.71039e-05
-2.53933
7.05444e-05
-2.72286
7.38355e-05
-2.91969
7.6595e-05
-3.13073
7.8687e-05
-3.35709
7.98931e-05
-3.59966
8.01125e-05
-3.85995
7.88776e-05
-4.13906
7.61824e-05
-4.43818
7.19929e-05
-4.75903
6.60452e-05
-5.10319
5.74544e-05
-5.47196
4.68381e-05
-5.86763
3.32304e-05
-6.29171
1.79371e-05
-6.74646
4.03338e-06
-0.443723
4.47581e-06
-0.475793
2.94938e-06
-0.510189
4.37673e-06
-0.547046
4.72127e-06
-0.586584
6.38464e-06
-0.628969
4.2593e-06
-0.674424
7.2962e-06
-0.723173
1.29934e-05
-0.775398
1.31556e-05
-0.831489
1.64989e-05
-0.891472
2.14088e-05
-0.956062
2.28125e-05
-1.02496
2.52307e-05
-1.09916
3.11843e-05
-1.17865
3.86167e-05
-1.26374
4.13068e-05
-1.35503
4.05848e-05
-1.45302
4.07811e-05
-1.55802
4.21834e-05
-1.67061
4.60831e-05
-1.7914
5.13164e-05
-1.9208
5.709e-05
-2.0597
6.1015e-05
-2.2085
6.46324e-05
-2.36812
6.86442e-05
-2.53933
7.23288e-05
-2.72285
7.55476e-05
-2.91969
7.83177e-05
-3.13073
8.03961e-05
-3.35709
8.16837e-05
-3.59966
8.17367e-05
-3.85995
8.04576e-05
-4.13906
7.76786e-05
-4.43819
7.34316e-05
-4.75904
6.71803e-05
-5.1032
5.85107e-05
-5.47197
4.75674e-05
-5.86765
3.37548e-05
-6.29172
1.82101e-05
-6.74648
4.74967e-06
-0.413826
3.94416e-06
-0.443722
4.37236e-06
-0.475795
3.40259e-06
-0.510188
4.54626e-06
-0.547046
5.49921e-06
-0.586583
4.59677e-06
-0.628969
5.85547e-06
-0.674422
8.94737e-06
-0.723169
1.42708e-05
-0.775399
1.44582e-05
-0.831487
1.89055e-05
-0.89147
2.34196e-05
-0.956063
2.35583e-05
-1.02496
2.65679e-05
-1.09916
3.37769e-05
-1.17864
3.98921e-05
-1.26373
3.9944e-05
-1.35503
3.91956e-05
-1.45302
4.13081e-05
-1.55802
4.53235e-05
-1.67061
4.73267e-05
-1.7914
5.4412e-05
-1.9208
5.83816e-05
-2.0597
6.23001e-05
-2.2085
6.62493e-05
-2.36811
7.03496e-05
-2.53933
7.39914e-05
-2.72285
7.72497e-05
-2.91969
8.00247e-05
-3.13073
8.22011e-05
-3.35709
8.33377e-05
-3.59967
8.33618e-05
-3.85996
8.2023e-05
-4.13907
7.92662e-05
-4.4382
7.47479e-05
-4.75904
6.8405e-05
-5.10321
5.94681e-05
-5.47198
4.82859e-05
-5.86766
3.43468e-05
-6.29174
1.84426e-05
-6.7465
5.48886e-06
-0.385934
4.46002e-06
-0.413827
5.29765e-06
-0.443723
3.75694e-06
-0.475795
2.95919e-06
-0.510187
3.64987e-06
-0.547044
6.19159e-06
-0.586585
6.44481e-06
-0.62897
6.88684e-06
-0.67442
1.23812e-05
-0.723167
1.63368e-05
-0.775401
1.69365e-05
-0.831485
2.38976e-05
-0.89147
2.7801e-05
-0.956067
2.8033e-05
-1.02496
2.80039e-05
-1.09915
3.63281e-05
-1.17864
4.04713e-05
-1.26374
3.95704e-05
-1.35503
3.83272e-05
-1.45302
4.16987e-05
-1.55801
4.71131e-05
-1.6706
4.97571e-05
-1.79139
5.51661e-05
-1.9208
5.99979e-05
-2.0597
6.39263e-05
-2.2085
6.79426e-05
-2.36811
7.19658e-05
-2.53933
7.56505e-05
-2.72285
7.89364e-05
-2.91969
8.18273e-05
-3.13073
8.38692e-05
-3.35709
8.49944e-05
-3.59967
8.49756e-05
-3.85996
8.36904e-05
-4.13907
8.07182e-05
-4.4382
7.61602e-05
-4.75905
6.95191e-05
-5.10322
6.04098e-05
-5.47199
4.9071e-05
-5.86768
3.48704e-05
-6.29176
1.86769e-05
-6.74652
5.31064e-06
-0.35992
4.28213e-06
-0.385934
6.17924e-06
-0.413828
4.55431e-06
-0.443724
3.14666e-06
-0.475795
4.01139e-06
-0.510187
5.50615e-06
-0.547043
8.1845e-06
-0.586586
9.3666e-06
-0.628972
8.77742e-06
-0.674417
1.58125e-05
-0.723166
1.95471e-05
-0.775404
2.20581e-05
-0.831483
2.79455e-05
-0.891471
3.07583e-05
-0.95607
2.97574e-05
-1.02496
3.12361e-05
-1.09915
3.59381e-05
-1.17863
3.84348e-05
-1.26373
3.9851e-05
-1.35503
3.94093e-05
-1.45301
4.27749e-05
-1.55801
4.80489e-05
-1.6706
5.29073e-05
-1.79139
5.69127e-05
-1.92079
6.1509e-05
-2.05969
6.54572e-05
-2.2085
6.95514e-05
-2.36811
7.35754e-05
-2.53933
7.72961e-05
-2.72285
8.07183e-05
-2.91969
8.34942e-05
-3.13073
8.55407e-05
-3.35709
8.66414e-05
-3.59967
8.66984e-05
-3.85996
8.52192e-05
-4.13908
8.22714e-05
-4.43821
7.7446e-05
-4.75906
7.06196e-05
-5.10323
6.14327e-05
-5.47201
4.97721e-05
-5.86769
3.53837e-05
-6.29177
1.89687e-05
-6.74654
5.82997e-06
-0.335665
3.52552e-06
-0.359919
5.45973e-06
-0.385933
4.04649e-06
-0.413827
4.93813e-06
-0.443726
3.0516e-06
-0.475794
5.98641e-06
-0.510187
6.7846e-06
-0.547042
8.859e-06
-0.586586
1.03941e-05
-0.628974
1.25387e-05
-0.674413
1.88628e-05
-0.723166
2.2161e-05
-0.775404
2.74638e-05
-0.831483
3.05557e-05
-0.89147
2.96859e-05
-0.95607
2.96805e-05
-1.02496
3.28101e-05
-1.09914
3.65931e-05
-1.17863
3.63172e-05
-1.26373
3.90808e-05
-1.35503
4.06614e-05
-1.45301
4.38618e-05
-1.55801
4.9831e-05
-1.6706
5.56227e-05
-1.79139
5.81868e-05
-1.92079
6.28284e-05
-2.05969
6.7007e-05
-2.2085
7.11291e-05
-2.36811
7.51773e-05
-2.53932
7.90381e-05
-2.72285
8.23665e-05
-2.91968
8.51648e-05
-3.13073
8.72037e-05
-3.35709
8.84013e-05
-3.59967
8.82805e-05
-3.85997
8.68589e-05
-4.13908
8.36865e-05
-4.43821
7.87138e-05
-4.75907
7.18193e-05
-5.10324
6.23469e-05
-5.47202
5.04628e-05
-5.86771
3.5998e-05
-6.29179
1.91706e-05
-6.74656
6.66542e-06
-0.313039
5.24725e-06
-0.335667
3.37179e-06
-0.359917
4.58129e-06
-0.385934
4.2555e-06
-0.413826
3.86922e-06
-0.443726
3.79032e-06
-0.475792
4.56578e-06
-0.510185
6.33201e-06
-0.547039
8.81753e-06
-0.586584
1.16735e-05
-0.628973
1.63119e-05
-0.674411
2.00583e-05
-0.723163
2.2657e-05
-0.775399
2.9087e-05
-0.831481
2.98995e-05
-0.891471
2.92789e-05
-0.956069
3.04526e-05
-1.02496
3.30999e-05
-1.09914
3.80121e-05
-1.17863
3.66099e-05
-1.26373
3.68733e-05
-1.35502
4.06043e-05
-1.45301
4.57882e-05
-1.558
5.11655e-05
-1.6706
5.61092e-05
-1.79139
5.9923e-05
-1.92079
6.42668e-05
-2.05969
6.85016e-05
-2.20849
7.26953e-05
-2.3681
7.68741e-05
-2.53932
8.06507e-05
-2.72285
8.40193e-05
-2.91968
8.68279e-05
-3.13073
8.89814e-05
-3.35709
9.00192e-05
-3.59967
8.99802e-05
-3.85997
8.83562e-05
-4.13908
8.50811e-05
-4.43822
8.00899e-05
-4.75908
7.28956e-05
-5.10325
6.32453e-05
-5.47203
5.13037e-05
-5.86772
3.64336e-05
-6.29181
1.94321e-05
-6.74658
6.6402e-06
-0.291941
6.32639e-06
-0.31304
4.14069e-06
-0.335668
3.86311e-06
-0.359917
3.37863e-06
-0.385933
4.46886e-06
-0.413827
3.51444e-06
-0.443726
4.74053e-06
-0.475792
5.2054e-06
-0.510184
7.23547e-06
-0.547038
1.0157e-05
-0.586583
1.32438e-05
-0.62897
1.65703e-05
-0.674407
2.04436e-05
-0.723161
2.2075e-05
-0.775392
2.8517e-05
-0.83148
2.96272e-05
-0.891471
3.09355e-05
-0.95607
3.07681e-05
-1.02496
3.32262e-05
-1.09914
3.56833e-05
-1.17863
3.74248e-05
-1.26373
3.60692e-05
-1.35502
4.18498e-05
-1.45301
4.78138e-05
-1.558
5.28874e-05
-1.67059
5.7476e-05
-1.79139
6.12751e-05
-1.92078
6.57038e-05
-2.05968
6.99993e-05
-2.20849
7.43469e-05
-2.3681
7.84462e-05
-2.53932
8.22696e-05
-2.72285
8.56656e-05
-2.91968
8.86058e-05
-3.13073
9.06172e-05
-3.35709
9.17586e-05
-3.59967
9.15349e-05
-3.85997
8.98349e-05
-4.13909
8.65922e-05
-4.43823
8.13265e-05
-4.75908
7.39565e-05
-5.10326
6.4329e-05
-5.47204
5.18951e-05
-5.86774
3.69752e-05
-6.29183
1.96941e-05
-6.7466
6.30776e-06
-0.27226
6.74228e-06
-0.291941
4.19319e-06
-0.31304
3.6516e-06
-0.335668
2.50646e-06
-0.359916
2.93948e-06
-0.385931
3.14972e-06
-0.413827
2.99774e-06
-0.443724
4.72876e-06
-0.475792
7.53887e-06
-0.510184
9.0688e-06
-0.547037
1.31374e-05
-0.586583
1.43394e-05
-0.628968
1.90599e-05
-0.674406
2.13586e-05
-0.723161
2.35929e-05
-0.775387
3.00339e-05
-0.83148
3.1073e-05
-0.891471
3.01789e-05
-0.956069
2.94035e-05
-1.02495
3.16424e-05
-1.09913
3.52928e-05
-1.17863
3.77448e-05
-1.26373
3.80878e-05
-1.35502
4.51821e-05
-1.453
5.00239e-05
-1.558
5.41707e-05
-1.67059
5.85773e-05
-1.79138
6.2743e-05
-1.92078
6.71123e-05
-2.05968
7.15853e-05
-2.20849
7.58757e-05
-2.3681
8.00251e-05
-2.53932
8.3884e-05
-2.72284
8.74266e-05
-2.91968
9.0243e-05
-3.13073
9.23764e-05
-3.3571
9.33516e-05
-3.59968
9.30728e-05
-3.85998
9.14394e-05
-4.13909
8.79522e-05
-4.43823
8.25444e-05
-4.75909
7.52367e-05
-5.10327
6.5097e-05
-5.47206
5.26435e-05
-5.86775
3.75112e-05
-6.29184
1.99205e-05
-6.74662
6.00874e-06
-0.253913
6.15858e-06
-0.27226
5.3729e-06
-0.291942
3.59142e-06
-0.31304
3.78091e-06
-0.335669
3.01811e-06
-0.359916
3.0254e-06
-0.385931
2.44604e-06
-0.413826
3.66891e-06
-0.443723
4.34627e-06
-0.475788
7.47941e-06
-0.510183
9.32944e-06
-0.547033
1.19777e-05
-0.58658
1.61894e-05
-0.628965
2.13946e-05
-0.674406
2.17224e-05
-0.723159
2.55225e-05
-0.775383
2.82467e-05
-0.831477
3.0769e-05
-0.891472
3.02633e-05
-0.95607
3.00447e-05
-1.02495
3.25084e-05
-1.09913
3.53289e-05
-1.17863
3.54396e-05
-1.26373
4.06955e-05
-1.35501
4.72748e-05
-1.453
5.10654e-05
-1.55799
5.54507e-05
-1.67059
5.98935e-05
-1.79138
6.41099e-05
-1.92078
6.86435e-05
-2.05968
7.30538e-05
-2.20848
7.74094e-05
-2.3681
8.16001e-05
-2.53931
8.56123e-05
-2.72284
8.90497e-05
-2.91968
9.2004e-05
-3.13073
9.39895e-05
-3.3571
9.49292e-05
-3.59968
9.47433e-05
-3.85998
9.28866e-05
-4.1391
8.9292e-05
-4.43824
8.4006e-05
-4.7591
7.61498e-05
-5.10328
6.60602e-05
-5.47207
5.33887e-05
-5.86777
3.79734e-05
-6.29186
2.01793e-05
-6.74664
5.76984e-06
-0.236796
6.12482e-06
-0.253913
5.59341e-06
-0.27226
4.70957e-06
-0.291944
3.93684e-06
-0.31304
3.00783e-06
-0.335669
4.02217e-06
-0.359917
3.46012e-06
-0.385932
3.28148e-06
-0.413826
3.65731e-06
-0.443723
7.15221e-06
-0.475788
8.28056e-06
-0.510182
1.02661e-05
-0.547031
1.33621e-05
-0.586577
1.72626e-05
-0.628961
2.34669e-05
-0.674408
2.15357e-05
-0.723155
2.39312e-05
-0.775378
2.59296e-05
-0.831473
2.92203e-05
-0.891471
2.80971e-05
-0.956068
3.26461e-05
-1.02495
3.44751e-05
-1.09913
3.49286e-05
-1.17863
3.59659e-05
-1.26372
4.3338e-05
-1.35501
4.88857e-05
-1.453
5.23993e-05
-1.55799
5.67569e-05
-1.67058
6.11311e-05
-1.79138
6.55813e-05
-1.92077
7.00452e-05
-2.05968
7.4531e-05
-2.20848
7.89389e-05
-2.36809
8.32867e-05
-2.53931
8.7207e-05
-2.72284
9.07963e-05
-2.91968
9.36203e-05
-3.13073
9.55881e-05
-3.3571
9.66437e-05
-3.59968
9.62528e-05
-3.85998
9.43147e-05
-4.1391
9.08957e-05
-4.43825
8.50567e-05
-4.75911
7.72937e-05
-5.10329
6.70175e-05
-5.47208
5.40329e-05
-5.86778
3.84929e-05
-6.29188
2.0403e-05
-6.74666
4.88274e-06
-0.220837
5.91757e-06
-0.236796
5.68823e-06
-0.253913
5.18471e-06
-0.272261
4.68721e-06
-0.291944
3.56296e-06
-0.313041
3.8453e-06
-0.335669
1.09658e-06
-0.359914
2.99242e-06
-0.385932
2.95366e-06
-0.413825
4.67513e-06
-0.44372
8.50576e-06
-0.475788
1.09223e-05
-0.510182
1.28159e-05
-0.547031
1.66974e-05
-0.586577
1.94582e-05
-0.628957
2.34446e-05
-0.67441
2.29748e-05
-0.723154
2.38041e-05
-0.775376
2.67409e-05
-0.83147
2.75962e-05
-0.89147
2.6488e-05
-0.956062
3.16336e-05
-1.02495
3.50187e-05
-1.09913
3.52881e-05
-1.17863
3.82446e-05
-1.26372
4.63553e-05
-1.355
4.97426e-05
-1.453
5.36496e-05
-1.55799
5.80008e-05
-1.67058
6.25101e-05
-1.79137
6.69322e-05
-1.92077
7.14666e-05
-2.05967
7.60048e-05
-2.20848
8.05764e-05
-2.36809
8.48438e-05
-2.53931
8.89238e-05
-2.72284
9.2401e-05
-2.91968
9.52231e-05
-3.13073
9.73261e-05
-3.3571
9.81956e-05
-3.59968
9.77446e-05
-3.85999
9.60234e-05
-4.13911
9.20552e-05
-4.43825
8.63648e-05
-4.75912
7.84319e-05
-5.1033
6.78461e-05
-5.4721
5.4763e-05
-5.8678
3.89407e-05
-6.2919
2.06848e-05
-6.74668
4.984e-06
-0.205958
5.97343e-06
-0.220837
4.91755e-06
-0.236795
4.91666e-06
-0.253913
4.62284e-06
-0.27226
3.47477e-06
-0.291944
2.96994e-06
-0.31304
2.09597e-06
-0.33567
1.49067e-06
-0.359913
1.81455e-06
-0.385931
2.84223e-06
-0.413823
6.25583e-06
-0.443718
1.02986e-05
-0.475788
1.28421e-05
-0.510182
1.69245e-05
-0.547031
1.82293e-05
-0.586576
2.2268e-05
-0.628955
2.20364e-05
-0.674409
2.41932e-05
-0.723154
2.57383e-05
-0.775375
2.71826e-05
-0.83147
2.82912e-05
-0.891472
2.79377e-05
-0.956058
3.36581e-05
-1.02495
3.51596e-05
-1.09913
3.55534e-05
-1.17862
4.11562e-05
-1.26371
4.69106e-05
-1.355
5.09708e-05
-1.45299
5.49547e-05
-1.55798
5.93427e-05
-1.67058
6.37796e-05
-1.79137
6.82901e-05
-1.92077
7.28807e-05
-2.05967
7.75844e-05
-2.20848
8.20888e-05
-2.36809
8.65203e-05
-2.53931
9.05029e-05
-2.72284
9.39937e-05
-2.91968
9.69659e-05
-3.13073
9.89013e-05
-3.3571
9.97309e-05
-3.59968
9.95291e-05
-3.85999
9.72647e-05
-4.13911
9.34941e-05
-4.43826
8.76662e-05
-4.75913
7.94209e-05
-5.10331
6.8782e-05
-5.47211
5.53944e-05
-5.86782
3.94957e-05
-6.29192
2.087e-05
-6.7467
4.95651e-06
-0.192072
5.97699e-06
-0.205958
7.16385e-06
-0.220839
4.73175e-06
-0.236795
5.092e-06
-0.253914
4.22287e-06
-0.272261
2.03711e-06
-0.291943
2.85802e-06
-0.313041
7.07722e-07
-0.335669
2.03364e-06
-0.359913
1.91069e-06
-0.38593
4.95619e-06
-0.413822
8.40666e-06
-0.443716
1.11251e-05
-0.475786
1.35779e-05
-0.510179
1.78157e-05
-0.54703
1.94853e-05
-0.586573
2.39963e-05
-0.628957
2.39191e-05
-0.674408
2.23105e-05
-0.723151
2.59436e-05
-0.775374
2.54336e-05
-0.831467
2.46801e-05
-0.891469
2.89628e-05
-0.956054
3.57658e-05
-1.02495
3.63698e-05
-1.09913
3.74557e-05
-1.17862
4.4397e-05
-1.26371
4.83152e-05
-1.355
5.21067e-05
-1.45299
5.62203e-05
-1.55798
6.05726e-05
-1.67057
6.50671e-05
-1.79137
6.96448e-05
-1.92077
7.43988e-05
-2.05967
7.90443e-05
-2.20847
8.37172e-05
-2.36808
8.80636e-05
-2.5393
9.20712e-05
-2.72283
9.57256e-05
-2.91967
9.85477e-05
-3.13073
0.000100461
-3.3571
0.000101567
-3.59969
0.000100831
-3.85999
9.88029e-05
-4.13912
9.49264e-05
-4.43827
8.88004e-05
-4.75914
8.05369e-05
-5.10333
6.95927e-05
-5.47213
5.61812e-05
-5.86783
3.98632e-05
-6.29194
2.11551e-05
-6.74672
4.65891e-06
-0.179137
6.79377e-06
-0.192073
7.23986e-06
-0.205959
6.24966e-06
-0.220841
5.20784e-06
-0.236795
3.14345e-06
-0.253913