/*--------------------------------*- C++ -*----------------------------------*\
| =========                 |                                                 |
| \\      /  F ield         | OpenFOAM: The Open Source CFD Toolbox           |
|  \\    /   O peration     | Version:  2212                                  |
|   \\  /    A nd           | Website:  www.openfoam.com                      |
|    \\/     M anipulation  |                                                 |
\*---------------------------------------------------------------------------*/
FoamFile
{
    version     2.0;
    format      ascii;
    arch        "LSB;label=32;scalar=64";
    class       volScalarField;
    location    "100";
    object      nut;
}
// * * * * * * * * * * * * * * * * * * * * * * * * * * * * * * * * * * * * * //

dimensions      [0 2 -1 0 0 0 0];

internalField   nonuniform List<scalar> 
165000
(
6.8866e-08
3.18202e-08
6.24342e-08
1.50279e-08
3.18111e-08
5.52423e-08
1.42192e-08
1.43321e-08
3.5352e-08
4.87748e-08
1.44619e-08
1.41635e-08
1.4754e-08
4.39368e-08
4.33413e-08
1.37973e-08
1.46042e-08
1.41961e-08
1.51809e-08
3.78636e-08
3.88332e-08
1.20816e-08
1.39363e-08
1.51279e-08
1.44943e-08
1.52127e-08
3.19654e-08
3.53261e-08
1.00341e-08
1.22604e-08
1.44902e-08
1.58364e-08
1.46349e-08
1.57091e-08
2.84221e-08
3.60672e-08
8.78159e-09
1.0084e-08
1.29027e-08
1.51494e-08
1.63157e-08
1.50666e-08
1.67903e-08
2.87619e-08
3.91679e-08
7.75463e-09
8.75387e-09
1.0538e-08
1.34023e-08
1.58523e-08
1.70596e-08
1.56438e-08
1.82669e-08
3.1224e-08
4.25295e-08
6.86815e-09
7.71477e-09
9.18131e-09
1.08262e-08
1.41854e-08
1.66993e-08
1.78976e-08
1.64471e-08
1.98041e-08
3.52046e-08
5.25851e-08
6.20584e-09
6.87937e-09
8.13619e-09
9.35475e-09
1.11304e-08
1.47842e-08
1.74433e-08
1.88084e-08
1.74096e-08
2.16198e-08
4.10449e-08
6.71243e-08
5.74461e-09
6.26429e-09
7.34928e-09
8.2849e-09
9.48889e-09
1.12802e-08
1.5614e-08
1.84722e-08
1.98358e-08
1.84413e-08
2.34566e-08
4.82605e-08
1.64245e-07
5.39085e-09
5.87403e-09
6.72492e-09
7.52119e-09
8.37665e-09
9.49066e-09
1.14948e-08
1.64149e-08
1.95312e-08
2.09446e-08
1.94802e-08
2.46744e-08
5.2745e-08
4.57335e-07
5.09462e-09
5.57139e-09
6.42507e-09
6.91676e-09
7.63405e-09
8.40273e-09
9.46157e-09
1.18327e-08
1.71645e-08
2.07442e-08
2.20839e-08
2.08184e-08
2.50609e-08
4.78061e-08
4.29995e-07
4.91232e-09
5.27703e-09
6.1115e-09
6.65652e-09
7.04339e-09
7.61816e-09
8.34096e-09
9.48812e-09
1.20928e-08
1.7946e-08
2.20978e-08
2.33669e-08
2.21114e-08
2.66422e-08
4.43742e-08
6.40665e-08
4.93878e-09
5.15851e-09
5.82526e-09
6.35375e-09
6.78254e-09
7.04456e-09
7.55966e-09
8.29644e-09
9.57548e-09
1.2852e-08
1.92772e-08
2.36862e-08
2.4622e-08
2.35953e-08
2.86781e-08
4.11294e-08
5.66456e-08
4.93437e-09
5.20006e-09
5.60989e-09
6.14941e-09
6.54218e-09
6.79913e-09
7.00348e-09
7.4982e-09
8.27889e-09
9.82229e-09
1.37743e-08
2.10996e-08
2.59662e-08
2.59899e-08
2.50508e-08
3.06988e-08
4.43274e-08
5.63318e-08
5.02243e-09
5.19565e-09
5.64828e-09
6.10943e-09
6.35589e-09
6.57284e-09
6.79202e-09
6.97627e-09
7.44523e-09
8.31238e-09
1.03127e-08
1.54546e-08
2.31537e-08
2.86894e-08
2.73003e-08
2.66708e-08
3.24606e-08
4.64585e-08
5.72162e-08
5.11013e-09
5.2743e-09
5.62492e-09
6.0598e-09
6.43053e-09
6.41771e-09
6.54678e-09
6.7629e-09
6.94221e-09
7.42555e-09
8.51805e-09
1.11043e-08
1.74575e-08
2.62858e-08
3.21968e-08
2.89907e-08
2.82668e-08
3.42259e-08
4.85882e-08
5.86046e-08
5.85037e-09
5.44994e-09
5.65887e-09
6.06213e-09
6.42705e-09
6.47795e-09
6.42161e-09
6.43401e-09
6.74584e-09
6.97907e-09
7.56172e-09
9.00563e-09
1.23541e-08
2.00094e-08
3.00438e-08
3.64905e-08
3.08443e-08
3.00719e-08
3.58885e-08
5.07356e-08
6.01908e-08
9.0902e-09
6.09691e-09
5.78013e-09
6.10324e-09
6.40603e-09
6.55306e-09
6.42758e-09
6.33787e-09
6.30409e-09
6.7476e-09
7.14029e-09
7.89136e-09
9.88279e-09
1.42261e-08
2.43499e-08
3.51053e-08
4.13987e-08
3.31438e-08
3.18108e-08
3.75163e-08
5.26891e-08
6.20487e-08
1.90069e-08
9.08395e-09
6.35773e-09
6.2709e-09
6.48232e-09
6.82547e-09
6.53647e-09
6.46663e-09
6.36075e-09
6.27376e-09
6.77966e-09
7.47982e-09
8.5245e-09
1.1204e-08
1.68782e-08
2.96606e-08
4.16079e-08
4.67311e-08
3.55776e-08
3.38632e-08
3.90478e-08
5.46495e-08
6.40591e-08
5.51853e-08
2.76794e-08
1.2642e-08
7.25948e-09
6.62772e-09
7.01245e-09
6.95249e-09
6.52728e-09
6.50694e-09
6.27535e-09
6.27564e-09
7.02704e-09
8.06528e-09
9.47362e-09
1.31571e-08
2.05915e-08
3.64413e-08
4.94291e-08
5.30086e-08
3.83553e-08
3.59503e-08
4.06554e-08
5.64737e-08
6.62788e-08
1.56784e-07
1.03516e-07
5.49605e-08
2.01296e-08
8.68788e-09
7.29707e-09
7.29893e-09
7.01766e-09
6.56649e-09
6.38696e-09
6.27504e-09
6.49805e-09
7.67073e-09
9.0403e-09
1.09205e-08
1.5912e-08
2.56604e-08
4.54751e-08
5.96137e-08
5.97965e-08
4.12596e-08
3.83556e-08
4.22261e-08
5.83533e-08
6.87205e-08
3.30069e-07
2.84873e-07
2.15709e-07
1.06268e-07
3.40133e-08
1.09537e-08
7.72269e-09
7.38125e-09
6.97331e-09
6.46108e-09
6.43188e-09
6.36571e-09
7.06818e-09
8.85748e-09
1.04749e-08
1.29993e-08
1.9674e-08
3.226e-08
5.71902e-08
7.18606e-08
6.80316e-08
4.47276e-08
4.08752e-08
4.40796e-08
6.01212e-08
7.11618e-08
6.91805e-07
4.46114e-07
3.80937e-07
3.36189e-07
1.94962e-07
5.43596e-08
1.38831e-08
8.138e-09
7.39941e-09
7.01421e-09
6.47669e-09
6.47629e-09
6.74329e-09
8.14458e-09
1.05265e-08
1.22047e-08
1.58767e-08
2.45998e-08
4.04599e-08
6.9685e-08
8.6708e-08
7.66413e-08
4.84337e-08
4.37112e-08
4.60084e-08
6.20286e-08
7.37704e-08
1.05941e-06
7.69901e-07
4.92525e-07
3.87174e-07
3.66508e-07
2.50099e-07
8.16165e-08
1.82815e-08
8.43401e-09
7.42838e-09
7.03707e-09
6.47907e-09
6.94569e-09
7.60357e-09
9.70534e-09
1.24409e-08
1.44721e-08
1.95703e-08
3.09835e-08
5.02436e-08
8.31419e-08
1.0313e-07
8.68054e-08
5.2675e-08
4.6727e-08
4.83432e-08
6.39275e-08
7.65376e-08
1.51185e-06
1.45627e-06
9.66648e-07
5.15904e-07
3.88987e-07
3.61783e-07
2.61667e-07
1.15775e-07
2.38236e-08
8.92069e-09
7.41004e-09
7.04066e-09
6.93371e-09
7.63801e-09
8.92995e-09
1.15822e-08
1.4006e-08
1.70973e-08
2.4127e-08
3.92199e-08
6.24054e-08
1.01082e-07
1.24867e-07
9.7694e-08
5.71654e-08
5.00779e-08
5.08313e-08
6.61647e-08
7.93499e-08
3.32729e-06
2.46409e-06
2.85993e-06
2.01334e-06
6.73926e-07
3.44559e-07
3.55511e-07
2.76512e-07
1.39709e-07
3.19096e-08
9.40818e-09
7.34062e-09
7.15693e-09
7.79009e-09
8.99178e-09
1.08688e-08
1.34749e-08
1.62943e-08
2.10267e-08
2.97984e-08
4.94946e-08
7.65057e-08
1.1897e-07
1.50278e-07
1.09502e-07
6.1909e-08
5.33727e-08
5.39911e-08
6.83856e-08
8.2411e-08
9.21417e-06
7.17258e-06
6.27699e-06
7.54449e-06
5.67014e-06
1.1971e-06
2.72475e-07
3.03942e-07
2.56643e-07
1.483e-07
4.05986e-08
1.01158e-08
7.48078e-09
7.85238e-09
9.12371e-09
1.12565e-08
1.30196e-08
1.57798e-08
2.04673e-08
2.5702e-08
3.71623e-08
6.15551e-08
9.17806e-08
1.40447e-07
1.80071e-07
1.20404e-07
6.68103e-08
5.67196e-08
5.73084e-08
7.0938e-08
8.54719e-08
2.18995e-05
1.99024e-05
1.76451e-05
1.66261e-05
2.05569e-05
1.62462e-05
3.03405e-06
2.30024e-07
2.53736e-07
2.44583e-07
1.53239e-07
5.31727e-08
1.12272e-08
8.28447e-09
9.15852e-09
1.11867e-08
1.31674e-08
1.52087e-08
1.88214e-08
2.61348e-08
3.1265e-08
4.64495e-08
7.58181e-08
1.09264e-07
1.64523e-07
2.13111e-07
1.23043e-07
7.14912e-08
6.05827e-08
6.07572e-08
7.35317e-08
8.88672e-08
4.79554e-05
4.52568e-05
4.31653e-05
4.53509e-05
4.90568e-05
5.45184e-05
4.42312e-05
8.15021e-06
2.05995e-07
2.14743e-07
2.10729e-07
1.50499e-07
6.53616e-08
1.37613e-08
9.9991e-09
1.19969e-08
1.39483e-08
1.45391e-08
1.63156e-08
2.47077e-08
3.28521e-08
3.80461e-08
5.76867e-08
9.05653e-08
1.25307e-07
1.89721e-07
2.45936e-07
1.22485e-07
7.56398e-08
6.46795e-08
6.41321e-08
7.66133e-08
9.22486e-08
0.000102621
9.58435e-05
9.05102e-05
0.000101859
0.000121363
0.000137937
0.000144793
0.000108558
2.08832e-05
1.88452e-07
1.75288e-07
1.93987e-07
1.49622e-07
8.08644e-08
1.97475e-08
1.61211e-08
1.92896e-08
1.97262e-08
1.60678e-08
2.00554e-08
3.22257e-08
4.00013e-08
4.62508e-08
7.03085e-08
1.08185e-07
1.45862e-07
2.12397e-07
2.70409e-07
1.24296e-07
7.88145e-08
6.78308e-08
6.72918e-08
7.97511e-08
9.60195e-08
0.000182042
0.000202373
0.000183772
0.000206639
0.000253114
0.000316437
0.000372138
0.000351293
0.00023667
5.05696e-05
1.68499e-07
1.59371e-07
1.81656e-07
1.59244e-07
1.02112e-07
3.99357e-08
3.75106e-08
4.47495e-08
3.45548e-08
1.83478e-08
2.65526e-08
3.94245e-08
4.83655e-08
5.57459e-08
8.51874e-08
1.25887e-07
1.69053e-07
2.49209e-07
2.895e-07
1.21289e-07
8.06003e-08
7.05797e-08
7.03969e-08
8.33547e-08
9.97455e-08
0.000236485
0.000296884
0.000365036
0.000400685
0.000507759
0.000682249
0.000827608
0.00083142
0.000704451
0.000428773
0.000108009
1.50283e-07
1.47971e-07
1.72417e-07
1.69304e-07
1.47674e-07
1.03312e-07
1.07366e-07
1.1344e-07
6.47502e-08
2.36611e-08
3.38054e-08
4.82042e-08
5.89328e-08
6.66718e-08
1.0153e-07
1.46267e-07
1.87702e-07
2.84688e-07
2.92328e-07
1.18893e-07
8.18484e-08
7.32398e-08
7.34428e-08
8.70464e-08
1.03825e-07
0.000354966
0.0004132
0.000563633
0.000724905
0.000947372
0.0013984
0.00172687
0.00177264
0.00144305
0.00104061
0.000602006
0.000191687
1.35072e-07
1.37216e-07
1.71587e-07
1.91651e-07
2.00267e-07
2.1781e-07
2.19333e-07
2.14623e-07
1.07472e-07
3.06118e-08
4.24254e-08
5.81713e-08
6.95639e-08
7.90686e-08
1.20966e-07
1.64306e-07
2.11286e-07
3.01458e-07
2.82569e-07
1.22971e-07
8.24786e-08
7.5089e-08
7.65733e-08
9.1187e-08
1.07778e-07
0.000578416
0.000627685
0.000827892
0.00114549
0.00161288
0.00220984
0.00321828
0.00346819
0.00280871
0.00185821
0.00118207
0.000829149
0.000235224
1.18153e-07
1.32115e-07
1.69447e-07
2.05362e-07
2.19777e-07
2.4131e-07
2.60863e-07
2.47976e-07
1.50467e-07
4.02555e-08
5.25118e-08
7.05955e-08
8.02876e-08
9.32629e-08
1.42743e-07
1.86631e-07
2.30614e-07
3.14125e-07
2.79566e-07
1.23076e-07
8.24067e-08
7.71396e-08
7.93783e-08
9.53877e-08
1.11974e-07
0.00114673
0.00117071
0.00128608
0.00153577
0.00229248
0.00329253
0.00450457
0.00495789
0.00417325
0.00275159
0.00188377
0.00127448
0.000975176
6.3982e-05
1.14234e-07
1.25829e-07
1.46212e-07
1.80847e-07
2.1609e-07
2.19748e-07
2.55674e-07
2.29301e-07
1.78785e-07
5.39704e-08
6.51094e-08
8.26989e-08
9.32775e-08
1.10938e-07
1.66315e-07
2.09463e-07
2.5487e-07
3.26827e-07
2.67894e-07
1.18867e-07
8.36136e-08
7.82609e-08
8.19791e-08
1.00002e-07
1.15944e-07
0.00143571
0.00160379
0.00196286
0.00248619
0.00279834
0.00366943
0.00430035
0.00463881
0.00373228
0.00270048
0.00205079
0.00169629
0.00162263
0.00119026
2.47283e-07
1.11717e-07
1.21136e-07
1.34442e-07
1.48931e-07
1.68559e-07
1.72176e-07
2.07807e-07
2.13846e-07
2.02003e-07
7.24075e-08
7.93385e-08
9.53015e-08
1.05485e-07
1.30615e-07
1.89619e-07
2.32699e-07
2.75405e-07
3.27859e-07
2.60483e-07
1.17125e-07
8.33027e-08
7.86729e-08
8.45021e-08
1.04811e-07
1.20042e-07
0.00124173
0.00143532
0.00123278
0.0016719
0.00162268
0.00218155
0.00268068
0.00285108
0.00285287
0.0024406
0.00196394
0.00187514
0.00171532
0.00179906
0.000247077
1.16916e-07
1.08923e-07
1.17789e-07
1.27706e-07
1.41455e-07
1.60924e-07
1.6435e-07
1.80207e-07
2.0836e-07
2.08882e-07
9.86472e-08
9.53291e-08
1.07834e-07
1.21268e-07
1.51922e-07
2.1235e-07
2.57701e-07
2.96983e-07
3.13288e-07
2.50291e-07
1.23879e-07
8.24884e-08
7.85494e-08
8.71483e-08
1.0962e-07
1.2386e-07
0.000765277
0.00107915
0.00108782
0.00104176
0.00107101
0.00124688
0.00183339
0.00195125
0.00196707
0.00200472
0.00187118
0.00163211
0.00155655
0.001804
0.0013912
2.43686e-06
1.09378e-07
1.12389e-07
1.16444e-07
1.22946e-07
1.35296e-07
1.5696e-07
1.61621e-07
1.74855e-07
1.95432e-07
2.28119e-07
1.37009e-07
1.13886e-07
1.24575e-07
1.37917e-07
1.74589e-07
2.37349e-07
2.80441e-07
3.11868e-07
3.01859e-07
2.52761e-07
1.2388e-07
8.28543e-08
7.81011e-08
8.99493e-08
1.14624e-07
1.27741e-07
0.000470043
0.000668885
0.000824938
0.000724116
0.000713958
0.000510896
0.00102602
0.00148027
0.00169175
0.00171719
0.00165283
0.00148373
0.00137896
0.00133836
0.00202723
0.000485424
1.34921e-07
1.1478e-07
1.16159e-07
1.19716e-07
1.26141e-07
1.39136e-07
1.55246e-07
1.587e-07
1.66937e-07
1.91827e-07
2.45333e-07
1.83172e-07
1.37722e-07
1.41103e-07
1.59853e-07
1.98896e-07
2.61365e-07
3.02753e-07
3.15555e-07
2.92702e-07
2.343e-07
1.22854e-07
8.25193e-08
7.69711e-08
9.19718e-08
1.1959e-07
1.31364e-07
0.000225479
0.000396557
0.000448058
0.000392296
0.000351286
0.000195453
0.000205731
0.000590772
0.00111971
0.00145372
0.0013271
0.00139722
0.00130631
0.00125804
0.0016091
0.00225837
2.50886e-06
1.09864e-07
1.2087e-07
1.18784e-07
1.23062e-07
1.27329e-07
1.42216e-07
1.5305e-07
1.64007e-07
1.65118e-07
1.91728e-07
2.79852e-07
2.39714e-07
1.63808e-07
1.64128e-07
1.86691e-07
2.23603e-07
2.86816e-07
3.16996e-07
3.16359e-07
2.91178e-07
2.47004e-07
1.28739e-07
8.12309e-08
7.54752e-08
9.51793e-08
1.24774e-07
1.35038e-07
0.000101445
0.000181823
0.000159668
0.000200342
0.000210898
0.000170952
0.000111493
9.68448e-05
0.000217925
0.000673571
0.000996745
0.0010174
0.00114878
0.00119072
0.00132029
0.00272567
0.000225236
1.19904e-07
1.12098e-07
1.26684e-07
1.24084e-07
1.27183e-07
1.33397e-07
1.45001e-07
1.52846e-07
1.62029e-07
1.66119e-07
1.84052e-07
2.89036e-07
2.69514e-07
1.98761e-07
1.89884e-07
2.09678e-07
2.47814e-07
3.0791e-07
3.29361e-07
3.10074e-07
2.75728e-07
2.4092e-07
1.3132e-07
7.99393e-08
7.3899e-08
9.9326e-08
1.2957e-07
1.38506e-07
0.000122722
2.95429e-05
4.40302e-05
5.54447e-05
5.8649e-05
0.000124495
0.000100534
8.7941e-05
0.000111363
0.000183584
0.000368124
0.000724754
0.000818494
0.000992589
0.00121772
0.00281697
0.00202556
5.27937e-07
1.09537e-07
1.17242e-07
1.32468e-07
1.28445e-07
1.3275e-07
1.3885e-07
1.48684e-07
1.51631e-07
1.61675e-07
1.68418e-07
1.883e-07
2.92289e-07
3.08797e-07
2.43407e-07
2.16549e-07
2.46363e-07
2.72735e-07
3.24323e-07
3.34259e-07
3.03212e-07
2.78756e-07
2.34823e-07
1.29991e-07
7.99402e-08
7.2173e-08
1.01872e-07
1.35074e-07
1.4206e-07
0.000110648
1.28559e-05
3.08844e-05
2.62059e-05
3.03438e-05
3.23639e-05
5.78879e-05
8.42459e-05
0.000114106
0.000182633
0.000301367
0.00047281
0.000693842
0.000910296
0.00131145
0.00253073
0.00368981
7.98374e-06
1.15177e-07
1.09389e-07
1.22136e-07
1.37721e-07
1.33887e-07
1.39042e-07
1.44383e-07
1.50573e-07
1.51391e-07
1.63502e-07
1.73993e-07
1.86114e-07
2.95533e-07
3.80308e-07
2.6526e-07
2.52402e-07
2.76196e-07
2.93105e-07
3.35929e-07
3.32991e-07
2.98543e-07
2.69397e-07
2.35365e-07
1.27555e-07
7.74369e-08
7.02531e-08
1.01976e-07
1.40328e-07
1.45451e-07
9.09442e-05
8.86654e-06
1.03608e-05
9.52507e-06
2.7908e-05
2.55434e-05
3.73042e-05
7.51253e-05
0.000132181
0.000195611
0.000314145
0.000511537
0.000759478
0.00102153
0.00136592
0.00230596
0.004361
0.000371334
3.86293e-07
1.01424e-07
1.12742e-07
1.26945e-07
1.43248e-07
1.39531e-07
1.45104e-07
1.48465e-07
1.50142e-07
1.52614e-07
1.67566e-07
1.75965e-07
1.9183e-07
3.66388e-07
4.84707e-07
3.21702e-07
2.86967e-07
3.01012e-07
3.1806e-07
3.40749e-07
3.29037e-07
2.97809e-07
2.69619e-07
2.33557e-07
1.28808e-07
7.6318e-08
6.79454e-08
1.0628e-07
1.46561e-07
1.48986e-07
4.64502e-05
2.21267e-05
4.45432e-06
4.95443e-06
1.16584e-05
2.12609e-05
3.17257e-05
6.61305e-05
0.000158271
0.000252814
0.000397068
0.000601138
0.000913788
0.00131161
0.00191332
0.00244831
0.00347483
0.00169646
8.03966e-07
1.03832e-07
1.00135e-07
1.14474e-07
1.32485e-07
1.47212e-07
1.45016e-07
1.51093e-07
1.48488e-07
1.49681e-07
1.55181e-07
1.70357e-07
1.80762e-07
2.00217e-07
3.99491e-07
5.63542e-07
4.1227e-07
3.25582e-07
3.2446e-07
3.30679e-07
3.40504e-07
3.27991e-07
2.85058e-07
2.55773e-07
2.27439e-07
1.2712e-07
7.4979e-08
6.55122e-08
1.11312e-07
1.52949e-07
1.52388e-07
3.38676e-06
3.56409e-05
2.92626e-06
3.98498e-06
5.03751e-06
1.44068e-05
2.56364e-05
6.00526e-05
0.000132853
0.000291632
0.000489012
0.000800232
0.00118724
0.00172336
0.00266358
0.00280297
0.00283195
0.00273279
6.11218e-06
1.49952e-07
1.01537e-07
1.03537e-07
1.17474e-07
1.38213e-07
1.50218e-07
1.51231e-07
1.52149e-07
1.48635e-07
1.52663e-07
1.59339e-07
1.76286e-07
1.88774e-07
2.0741e-07
4.15781e-07
7.94161e-07
4.63242e-07
3.52237e-07
3.4833e-07
3.40636e-07
3.38827e-07
3.21422e-07
2.8664e-07
2.57554e-07
2.26932e-07
1.25099e-07
7.18016e-08
6.28038e-08
1.14377e-07
1.58871e-07
1.56002e-07
1.94681e-07
4.16817e-06
3.40512e-06
2.24117e-06
3.37116e-06
8.41543e-06
1.94916e-05
4.94619e-05
0.0001185
0.000324889
0.000535979
0.000948466
0.00152572
0.00222952
0.00351644
0.00363005
0.00292234
0.00273838
0.000369985
1.66285e-07
1.08263e-07
1.03218e-07
1.0613e-07
1.20482e-07
1.41011e-07
1.55091e-07
1.54408e-07
1.51194e-07
1.52151e-07
1.57465e-07
1.712e-07
1.83584e-07
1.95871e-07
2.08854e-07
3.89035e-07
8.81281e-07
5.49925e-07
3.59827e-07
3.64382e-07
3.47056e-07
3.33203e-07
3.18543e-07
2.77862e-07
2.48576e-07
2.30642e-07
1.26145e-07
6.97741e-08
5.99423e-08
1.14237e-07
1.64929e-07
1.59489e-07
2.59771e-08
2.22486e-07
3.93411e-06
1.06744e-06
1.66778e-06
5.1856e-06
1.54566e-05
3.87764e-05
9.45187e-05
0.000248605
0.000562745
0.00104965
0.00179181
0.00277872
0.00449152
0.00459304
0.00278127
0.0024422
0.000401017
4.75112e-06
1.2292e-07
1.15979e-07
1.07405e-07
1.10579e-07
1.20987e-07
1.44392e-07
1.58709e-07
1.52415e-07
1.51641e-07
1.57379e-07
1.63677e-07
1.80116e-07
1.93063e-07
1.99944e-07
2.09002e-07
3.70928e-07
1.09291e-06
6.91774e-07
3.55237e-07
3.72228e-07
3.48959e-07
3.29076e-07
3.11454e-07
2.75065e-07
2.38195e-07
2.16674e-07
1.21675e-07
6.68356e-08
5.72677e-08
1.20915e-07
1.70882e-07
1.63237e-07
1.93473e-08
3.6712e-08
2.57456e-07
5.17949e-07
9.19414e-07
2.56142e-06
9.2288e-06
3.09e-05
7.4099e-05
0.000197415
0.000597626
0.00116873
0.00201043
0.00319201
0.0054457
0.00603206
0.00238235
0.00200844
0.000345029
5.49616e-06
1.13364e-07
1.18519e-07
1.26356e-07
1.11667e-07
1.1587e-07
1.23289e-07
1.47071e-07
1.56253e-07
1.52552e-07
1.5597e-07
1.62684e-07
1.71538e-07
1.89696e-07
1.9783e-07
2.01628e-07
2.10726e-07
3.55055e-07
1.20417e-06
8.75563e-07
3.51005e-07
3.6859e-07
3.51184e-07
3.25628e-07
3.05264e-07
2.6505e-07
2.35029e-07
2.08499e-07
1.17784e-07
6.26726e-08
5.52049e-08
1.26311e-07
1.76873e-07
1.66855e-07
5.14011e-08
1.19215e-08
4.56344e-08
2.24094e-07
4.99839e-07
1.19304e-06
5.52486e-06
1.78476e-05
6.30819e-05
0.000153885
0.000398467
0.00112092
0.00218129
0.00354499
0.00574834
0.00662376
0.00284695
0.0019933
0.000304727
2.20596e-05
2.83553e-07
1.00755e-07
1.22397e-07
1.26532e-07
1.19309e-07
1.18788e-07
1.27297e-07
1.46676e-07
1.56097e-07
1.59691e-07
1.61453e-07
1.68183e-07
1.7979e-07
1.94357e-07
1.96165e-07
2.05363e-07
2.14293e-07
3.37071e-07
1.21084e-06
1.12578e-06
3.63558e-07
3.73259e-07
3.48921e-07
3.18526e-07
2.99766e-07
2.53782e-07
2.2869e-07
1.95635e-07
1.2142e-07
6.10374e-08
5.37472e-08
1.23616e-07
1.82378e-07
1.70753e-07
2.24706e-07
1.03927e-08
1.63831e-08
5.2048e-08
2.57156e-07
5.04794e-07
2.47072e-06
1.10523e-05
4.06907e-05
0.000131012
0.000336329
0.000971638
0.00225638
0.00375876
0.00629548
0.00793677
0.00335498
0.00194632
0.000566916
2.50304e-05
2.6761e-07
1.00957e-07
9.90967e-08
1.12864e-07
1.31406e-07
1.23047e-07
1.2352e-07
1.30546e-07
1.46054e-07
1.5421e-07
1.6232e-07
1.67198e-07
1.76384e-07
1.90221e-07
1.94359e-07
2.01598e-07
2.16856e-07
2.22816e-07
3.17111e-07
1.26211e-06
1.29808e-06
4.23688e-07
3.77934e-07
3.48573e-07
3.08744e-07
2.7556e-07
2.31695e-07
1.92084e-07
1.58178e-07
1.15121e-07
5.53574e-08
5.27174e-08
1.30252e-07
1.87914e-07
1.74519e-07
1.01517e-06
1.12654e-08
1.10063e-08
1.99641e-08
6.90325e-08
2.31461e-07
1.20786e-06
5.60997e-06
2.42207e-05
9.24957e-05
0.00028951
0.000738379
0.00185726
0.00382216
0.00663307
0.0086012
0.00471086
0.00170426
0.000910944
2.572e-05
3.10131e-07
1.10526e-07
9.83018e-08
9.31414e-08
1.04592e-07
1.24312e-07
1.27264e-07
1.28133e-07
1.32755e-07
1.49504e-07
1.58572e-07
1.64798e-07
1.74239e-07
1.83777e-07
1.93748e-07
1.9085e-07
2.02082e-07
2.26226e-07
2.34897e-07
3.31908e-07
1.1759e-06
1.43111e-06
4.82056e-07
3.84434e-07
3.43887e-07
2.86153e-07
2.42949e-07
1.94522e-07
1.55125e-07
1.22857e-07
9.92923e-08
4.98882e-08
5.19983e-08
1.20284e-07
1.92473e-07
1.78549e-07
4.35921e-06
1.49254e-08
1.0777e-08
1.2596e-08
2.63647e-08
1.16998e-07
4.91182e-07
2.60006e-06
1.30012e-05
6.0687e-05
0.000221121
0.000634207
0.00168107
0.00379305
0.00740617
0.00909741
0.00495417
0.00211217
0.00120378
0.000157256
6.94643e-07
1.99035e-07
1.18812e-07
9.68042e-08
9.30312e-08
9.89238e-08
1.22498e-07
1.29471e-07
1.31914e-07
1.35365e-07
1.53676e-07
1.64446e-07
1.7285e-07
1.81886e-07
1.88578e-07
1.89649e-07
1.88698e-07
1.88911e-07
2.3063e-07
2.74409e-07
3.28994e-07
1.05441e-06
1.61766e-06
6.13224e-07
3.88664e-07
3.3088e-07
2.55144e-07
2.01289e-07
1.61492e-07
1.22422e-07
9.52147e-08
7.11096e-08
4.41479e-08
5.05852e-08
1.16698e-07
1.97201e-07
1.82442e-07
1.82892e-05
2.68237e-08
1.26284e-08
1.1524e-08
1.55903e-08
3.98079e-08
2.01044e-07
1.12172e-06
7.54264e-06
3.29715e-05
0.000154998
0.000527678
0.00136389
0.0032137
0.00644444
0.00976091
0.00551848
0.00235428
0.00161146
0.000165169
1.0923e-05
8.00742e-07
3.70445e-07
1.23151e-07
9.55999e-08
9.10492e-08
9.73956e-08
1.21976e-07
1.32167e-07
1.3158e-07
1.42209e-07
1.56082e-07
1.72724e-07
1.80667e-07
1.87513e-07
1.88456e-07
1.81325e-07
1.8568e-07
1.85865e-07
2.21596e-07
2.69732e-07
2.95053e-07
9.01215e-07
1.74752e-06
7.73991e-07
3.87829e-07
3.15689e-07
2.1687e-07
1.70942e-07
1.43736e-07
1.10646e-07
8.5127e-08
5.5494e-08
3.90144e-08
4.98682e-08
1.069e-07
2.01624e-07
1.86567e-07
7.28844e-05
7.32648e-08
1.84242e-08
1.13813e-08
1.31128e-08
2.142e-08
7.63633e-08
4.99608e-07
3.16813e-06
2.13683e-05
9.04166e-05
0.000396586
0.00120988
0.0029663
0.00593738
0.00902589
0.00575886
0.00255377
0.00180253
0.000513468
1.49716e-05
3.08906e-06
2.44951e-06
5.68963e-07
1.31616e-07
9.31278e-08
9.02664e-08
9.68456e-08
1.22316e-07
1.2925e-07
1.3757e-07
1.4813e-07
1.61572e-07
1.80009e-07
1.87039e-07
1.88423e-07
1.7893e-07
1.67632e-07
1.74414e-07
1.82355e-07
2.03782e-07
2.42044e-07
2.69811e-07
7.81716e-07
1.60838e-06
8.1129e-07
3.87455e-07
2.87072e-07
1.81898e-07
1.57006e-07
1.26412e-07
9.47212e-08
7.11999e-08
5.353e-08
3.81234e-08
4.86107e-08
1.0261e-07
1.98027e-07
1.90549e-07
0.000275355
2.33959e-07
3.73316e-08
1.35503e-08
1.21897e-08
1.60098e-08
3.48556e-08
1.87016e-07
1.48729e-06
1.01848e-05
6.11915e-05
0.000264416
0.000986948
0.0025511
0.00543508
0.0087911
0.00630593
0.00245481
0.00193354
0.000973233
2.62192e-05
8.13853e-06
1.04166e-05
6.08824e-06
5.78554e-07
1.30677e-07
9.32253e-08
9.05989e-08
9.7633e-08
1.24206e-07
1.35729e-07
1.43218e-07
1.51143e-07
1.71978e-07
1.871e-07
1.89518e-07
1.77574e-07
1.63044e-07
1.58769e-07
1.7303e-07
1.71513e-07
1.77708e-07
1.9689e-07
2.16588e-07
5.41366e-07
1.41683e-06
9.16717e-07
3.8627e-07
2.65849e-07
1.66352e-07
1.36689e-07
1.16411e-07
8.68487e-08
6.7657e-08
4.44947e-08
3.71703e-08
4.8931e-08
9.50099e-08
1.89002e-07
1.94733e-07
0.000985617
7.73235e-07
9.9639e-08
2.16157e-08
1.2137e-08
1.42146e-08
2.1441e-08
7.64986e-08
5.90635e-07
4.94653e-06
3.5475e-05
0.000181335
0.000744946
0.00230277
0.00489162
0.00838222
0.00542142
0.00241927
0.00191227
0.0012998
0.000118544
1.67935e-05
2.838e-05
3.0362e-05
7.87626e-06
6.84667e-07
1.04629e-07
9.25272e-08
9.00156e-08
9.72851e-08
1.29517e-07
1.40923e-07
1.47251e-07
1.56771e-07
1.8112e-07
1.90151e-07
1.79613e-07
1.59864e-07
1.53969e-07
1.52788e-07
1.61739e-07
1.61926e-07
1.63103e-07
1.68772e-07
1.83382e-07
3.85625e-07
1.1498e-06
9.58294e-07
3.82558e-07
2.35517e-07
1.46294e-07
1.30023e-07
1.09865e-07
7.99962e-08
6.6463e-08
4.18876e-08
3.6594e-08
4.63908e-08
9.18384e-08
1.84023e-07
1.98788e-07
0.00323479
2.53134e-06
2.93417e-07
4.79105e-08
1.66664e-08
1.30282e-08
1.76216e-08
3.63281e-08
2.40373e-07
2.2294e-06
1.74985e-05
0.00011909
0.000546994
0.00187879
0.00439702
0.00745427
0.0062154
0.00243285
0.00193323
0.00145821
0.000232968
2.84281e-05
5.2556e-05
8.18177e-05
6.48448e-05
8.26752e-06
4.27894e-07
9.59164e-08
9.37418e-08
9.18706e-08
1.05397e-07
1.32904e-07
1.45285e-07
1.50183e-07
1.67665e-07
1.85959e-07
1.84536e-07
1.62217e-07
1.51468e-07
1.49221e-07
1.53552e-07
1.50123e-07
1.52785e-07
1.49597e-07
1.55584e-07
1.73436e-07
2.95366e-07
9.02682e-07
8.9704e-07
3.79049e-07
2.4955e-07
1.40746e-07
1.21631e-07
1.03111e-07
7.53078e-08
6.22793e-08
3.9161e-08
3.58636e-08
4.4788e-08
8.73744e-08
1.80092e-07
2.03027e-07
0.0091067
8.38573e-06
9.20786e-07
1.34088e-07
2.90731e-08
1.49212e-08
1.5885e-08
2.41607e-08
9.48382e-08
1.00624e-06
9.13747e-06
6.6665e-05
0.000388968
0.00154566
0.00409403
0.00615306
0.00673875
0.0026008
0.00192201
0.00163849
0.00042576
3.46883e-05
6.70586e-05
0.000109368
0.000138438
7.64786e-05
8.25625e-06
1.27497e-07
9.2885e-08
9.33443e-08
9.8172e-08
1.14572e-07
1.3922e-07
1.46997e-07
1.58235e-07
1.76486e-07
1.87144e-07
1.70689e-07
1.52454e-07
1.46983e-07
1.46471e-07
1.45971e-07
1.43672e-07
1.43746e-07
1.47792e-07
1.53265e-07
1.67653e-07
2.40266e-07
6.95119e-07
8.42403e-07
4.09658e-07
2.55302e-07
1.33791e-07
1.12034e-07
9.68203e-08
6.85531e-08
5.86581e-08
3.83293e-08
3.58109e-08
4.52812e-08
8.55222e-08
1.7703e-07
2.07183e-07
0.021475
2.76247e-05
2.74167e-06
3.96214e-07
6.649e-08
2.13039e-08
1.48278e-08
2.03291e-08
4.58097e-08
3.69434e-07
4.48826e-06
3.79282e-05
0.00025178
0.00121384
0.00366806
0.00564359
0.00740728
0.00267605
0.00209566
0.00174493
0.000622921
4.87282e-05
6.49611e-05
0.000103262
0.000106405
0.000137133
7.30343e-05
1.20904e-06
1.11312e-07
9.20929e-08
9.64489e-08
1.07407e-07
1.22589e-07
1.4238e-07
1.52946e-07
1.65937e-07
1.81779e-07
1.79694e-07
1.56703e-07
1.46239e-07
1.44943e-07
1.40754e-07
1.40606e-07
1.36605e-07
1.3761e-07
1.44961e-07
1.52809e-07
1.67701e-07
2.1552e-07
5.10065e-07
7.41094e-07
4.32162e-07
2.94003e-07
1.26096e-07
1.07216e-07
8.98814e-08
6.92302e-08
5.94698e-08
3.7318e-08
3.55832e-08
4.54312e-08
8.27754e-08
1.72447e-07
2.11494e-07
0.0415662
8.9839e-05
7.71315e-06
1.19975e-06
1.79955e-07
3.70669e-08
1.86187e-08
1.76213e-08
2.94527e-08
1.53111e-07
1.74522e-06
2.12499e-05
0.000155635
0.000899389
0.00323684
0.00519249
0.00743439
0.00272894
0.00211908
0.00174153
0.000729153
7.1599e-05
6.76667e-05
9.58326e-05
9.96736e-05
0.000105443
0.000135654
1.30467e-05
1.8011e-07
1.08546e-07
9.7488e-08
1.04787e-07
1.19008e-07
1.31651e-07
1.48877e-07
1.61907e-07
1.73779e-07
1.84431e-07
1.66179e-07
1.47426e-07
1.42209e-07
1.41182e-07
1.35392e-07
1.34301e-07
1.32034e-07
1.31566e-07
1.44562e-07
1.5514e-07
1.6696e-07
2.03318e-07
3.89622e-07
6.51511e-07
4.33418e-07
2.97024e-07
1.22163e-07
9.73922e-08
8.19211e-08
7.08276e-08
5.85318e-08
3.79993e-08
3.58032e-08
4.34845e-08
8.16958e-08
1.72808e-07
2.15721e-07
0.0589003
0.000283781
1.91072e-05
3.46835e-06
5.28845e-07
8.07384e-08
2.59864e-08
1.77386e-08
2.46028e-08
6.79672e-08
7.64383e-07
9.17431e-06
9.69933e-05
0.000621167
0.00273675
0.00475713
0.00637008
0.0026486
0.00213603
0.00167221
0.000805451
7.55119e-05
7.66512e-05
0.000102752
0.000117007
0.000107194
0.000112907
0.000132512
4.63274e-07
1.59778e-07
1.06076e-07
1.0589e-07
1.16689e-07
1.30973e-07
1.41925e-07
1.58848e-07
1.70379e-07
1.8206e-07
1.75456e-07
1.52601e-07
1.42636e-07
1.37661e-07
1.34442e-07
1.29808e-07
1.29228e-07
1.28717e-07
1.26898e-07
1.36754e-07
1.49848e-07
1.65909e-07
1.92905e-07
3.16783e-07
5.87625e-07
4.4144e-07
3.27812e-07
1.15242e-07
8.69335e-08
7.41596e-08
6.54534e-08
5.61606e-08
3.72697e-08
3.59039e-08
4.24621e-08
7.93924e-08
1.71927e-07
2.20038e-07
0.0734667
0.000851969
4.25021e-05
9.11406e-06
1.56584e-06
2.14038e-07
4.25711e-08
2.27652e-08
2.1075e-08
4.09823e-08
2.91891e-07
4.53352e-06
4.80133e-05
0.000408764
0.00217425
0.00477794
0.00566596
0.00266243
0.00219698
0.00169678
0.000820813
8.44495e-05
6.94106e-05
0.000116463
0.000167979
0.000149112
0.000121798
0.000152729
1.50631e-05
1.82981e-07
1.19673e-07
1.0579e-07
1.1698e-07
1.29265e-07
1.42438e-07
1.53018e-07
1.68724e-07
1.8257e-07
1.86594e-07
1.60178e-07
1.45786e-07
1.39397e-07
1.35613e-07
1.27087e-07
1.28443e-07
1.2617e-07
1.21506e-07
1.20125e-07
1.29083e-07
1.42103e-07
1.59159e-07
1.82563e-07
2.68561e-07
5.10971e-07
4.95887e-07
3.1781e-07
1.05322e-07
8.06054e-08
6.82011e-08
6.40944e-08
5.54888e-08
3.90916e-08
3.61524e-08
4.18135e-08
7.80907e-08
1.74477e-07
2.24223e-07
0.0714429
0.00249787
8.52305e-05
2.12331e-05
4.52958e-06
5.97409e-07
8.73267e-08
3.01586e-08
2.13476e-08
3.23681e-08
1.29409e-07
1.77505e-06
2.60873e-05
0.000252863
0.00154153
0.00476926
0.00529696
0.00258238
0.00223337
0.00175953
0.000924423
0.000108268
8.04622e-05
0.000147805
0.000230842
0.000224553
0.000159091
0.000148489
0.000140489
3.33253e-07
1.35064e-07
1.20964e-07
1.17785e-07
1.30342e-07
1.3907e-07
1.5287e-07
1.66997e-07
1.83638e-07
1.93516e-07
1.74946e-07
1.49791e-07
1.41124e-07
1.34913e-07
1.28285e-07
1.22355e-07
1.25791e-07
1.17308e-07
1.14419e-07
1.10574e-07
1.11053e-07
1.25641e-07
1.54344e-07
1.69274e-07
2.35252e-07
4.2997e-07
4.78537e-07
3.51022e-07
1.04773e-07
7.73704e-08
6.51582e-08
6.03131e-08
5.47835e-08
4.01764e-08
3.64283e-08
4.08305e-08
7.53575e-08
1.74461e-07
2.28388e-07
0.0529066
0.00735029
0.000165876
4.26918e-05
1.19359e-05
1.65621e-06
2.15869e-07
4.33027e-08
2.66752e-08
2.70144e-08
6.91034e-08
7.77802e-07
1.14206e-05
0.000139313
0.0011477
0.00431178
0.00548409
0.00250921
0.00225647
0.00181692
0.00105242
0.000107863
6.96766e-05
0.000144299
0.000326382
0.000314169
0.000195482
0.00012885
0.000237642
5.47106e-06
2.81462e-07
1.34093e-07
1.23614e-07
1.33381e-07
1.39171e-07
1.49484e-07
1.66756e-07
1.81248e-07
1.96791e-07
1.9628e-07
1.54849e-07
1.44944e-07
1.36721e-07
1.29245e-07
1.20661e-07
1.19414e-07
1.17002e-07
1.09899e-07
1.04418e-07
9.80764e-08
9.78188e-08
1.07583e-07
1.38792e-07
1.61168e-07
2.09013e-07
3.53199e-07
4.63649e-07
3.51852e-07
1.19692e-07
7.1638e-08
6.30948e-08
5.99954e-08
5.13799e-08
4.18172e-08
3.7542e-08
3.98857e-08
7.33411e-08
1.78843e-07
2.32375e-07
0.0280938
0.015686
0.00032875
7.53736e-05
2.66735e-05
4.37156e-06
5.64292e-07
7.64017e-08
3.28888e-08
2.73505e-08
4.4786e-08
3.1492e-07
5.50435e-06
7.19288e-05
0.000715927
0.00377291
0.00566542
0.002482
0.00221864
0.00185519
0.0011115
0.000130619
6.12169e-05
0.000210165
0.000477806
0.000489635
0.000254591
0.000133699
0.000271099
6.92928e-05
2.1866e-07
1.43215e-07
1.33313e-07
1.32034e-07
1.47381e-07
1.48459e-07
1.67767e-07
1.80729e-07
2.00675e-07
2.05763e-07
1.75648e-07
1.46987e-07
1.40566e-07
1.31432e-07
1.23067e-07
1.16674e-07
1.16267e-07
1.10049e-07
1.01746e-07
9.27125e-08
8.79043e-08
8.85209e-08
9.67206e-08