/*--------------------------------*- C++ -*----------------------------------*\
| =========                 |                                                 |
| \\      /  F ield         | OpenFOAM: The Open Source CFD Toolbox           |
|  \\    /   O peration     | Version:  2212                                  |
|   \\  /    A nd           | Website:  www.openfoam.com                      |
|    \\/     M anipulation  |                                                 |
\*---------------------------------------------------------------------------*/
FoamFile
{
    version     2.0;
    format      ascii;
    arch        "LSB;label=32;scalar=64";
    class       surfaceScalarField;
    location    "100";
    object      phi;
}
// * * * * * * * * * * * * * * * * * * * * * * * * * * * * * * * * * * * * * //

dimensions      [0 3 -1 0 0 0 0];

oriented        oriented;

internalField   nonuniform List<scalar> 
328790
(
-0.0530844
14.7703
1.06096
6.99655
-0.666498
15.4368
2.79304
-15.8809
0.998659
5.3314
-0.405075
15.8419
4.58256
-28.4855
3.0678
-17.9501
1.38096
3.54536
0.184825
15.6571
6.64124
-60.2828
4.80758
-30.2253
3.26524
-19.8343
2.29571
1.43447
0.478222
15.1789
8.66306
-75.3286
6.86272
-62.3379
4.89969
-31.8598
3.51815
-21.0568
2.81189
-0.899197
0.651596
14.5273
10.4545
-78.3297
8.88314
-77.349
6.90283
-64.3411
5.04306
-33.3847
3.74697
-21.9919
3.08988
-3.33748
0.817682
13.7096
11.9779
-73.3895
10.6999
-80.1465
8.88724
-79.3334
7.07026
-66.3683
5.153
-34.7907
3.98897
-22.891
3.356
-5.8758
1.06136
12.6482
13.1266
-65.1724
12.2393
-74.929
10.68
-81.9392
9.07617
-81.3393
7.1615
-68.3768
5.30768
-36.1094
4.22683
-23.7618
3.611
-8.42543
1.30827
11.34
13.8934
-56.9993
13.3359
-66.269
12.2125
-76.4615
10.8773
-83.7404
9.13578
-83.3136
7.35684
-70.4259
5.44763
-37.3302
4.48478
-24.6356
3.85111
-10.9683
1.59437
9.74559
14.1986
-49.449
13.9867
-57.6501
13.2935
-67.35
12.3979
-77.9821
10.8745
-85.4791
9.33646
-85.2932
7.49168
-72.47
5.64486
-38.4903
4.72907
-25.5135
4.07452
-13.4484
1.9468
7.79878
14.0326
-41.6774
14.1393
-49.6016
13.9198
-58.2764
13.3664
-68.3185
12.346
-79.4536
11.0109
-87.1535
9.42942
-87.231
7.72768
-74.5528
5.82573
-39.5869
4.97906
-26.4181
4.2997
-15.8013
2.12105
5.67773
13.6194
-35.5271
13.8411
-41.3792
13.9964
-49.6782
13.8589
-58.7689
13.2959
-69.2684
12.3622
-80.8049
10.9757
-88.6999
9.62363
-89.1269
7.89019
-76.6173
6.05634
-40.6642
5.23334
-27.3517
4.48565
-18.1659
2.12594
3.55179
13.0597
-30.8626
13.3149
-35.0009
13.6876
-41.0704
13.8826
-49.7019
13.7276
-59.2006
13.2082
-70.1143
12.2757
-82.1048
11.0058
-90.0821
9.68733
-90.924
8.11429
-78.6752
6.30083
-41.7317
5.48369
-28.3498
4.63513
-20.6751
1.99367
1.55811
12.3741
-27.4257
12.6515
-30.1992
13.1721
-34.4854
13.5988
-40.7866
13.7239
-49.6982
13.5837
-59.5761
13.1161
-70.9548
12.1477
-83.2467
10.8601
-91.2548
9.75961
-92.5694
8.28344
-80.6578
6.58667
-42.8347
5.71796
-29.4326
4.76846
-23.4499
1.91506
-0.356953
11.5659
-25.2296
11.8525
-26.6266
12.4973
-29.5244
13.086
-33.9727
13.4666
-40.5292
13.5321
-49.6466
13.4284
-59.8884
12.9781
-71.7853
11.9149
-84.3015
10.722
-92.2172
9.75685
-94.0428
8.47738
-82.5485
6.84902
-43.9658
5.96141
-30.6255
4.88877
-26.4236
2.1346
-2.49156
10.6766
-23.576
10.9077
-24.2848
11.6724
-25.8018
12.374
-28.8124
12.9749
-33.481
13.2728
-40.2699
13.2758
-49.494
13.1936
-60.1039
12.8064
-72.6768
11.6258
-85.2053
10.5083
-92.9686
9.71188
-95.2773
8.58686
-84.2864
7.15534
-45.1597
6.19588
-31.9326
4.98975
-29.2788
2.2767
-4.76825
9.76251
-22.45
9.8998
-22.5682
10.671
-23.2834
11.4733
-24.9011
12.2736
-28.1111
12.7976
-33.0058
12.9877
-39.9817
13.003
-49.3034
12.9126
-60.21
12.4343
-73.4853
11.2539
-85.951
10.2679
-93.5247
9.56678
-96.2572
8.72802
-85.8591
7.43563
-46.3994
6.42628
-33.3692
5.06477
-32.0668
2.38117
-7.14943
8.91628
-21.4618
8.88322
-21.4334
9.6133
-21.5104
10.3702
-22.1802
11.3747
-24.0022
12.0917
-27.4053
12.5441
-32.5622
12.7009
-39.6797
12.6245
-49.0153
12.4831
-60.2589
11.9373
-74.1686
10.8577
-86.5408
9.94209
-93.9
9.42251
-96.9517
8.80289
-87.2263
7.73292
-47.7061
6.64312
-34.9475
5.12056
-34.8062
2.46992
-9.61934
8.13795
-20.2226
7.96495
-20.5435
8.52774
-20.3478
9.22654
-20.3668
10.269
-21.0745
11.1759
-23.0863
11.8775
-26.7387
12.2752
-32.1365
12.2644
-39.3196
12.1189
-48.651
11.8843
-60.2058
11.3362
-74.6471
10.347
-86.9457
9.62125
-94.0987
9.26377
-97.4126
8.88094
-88.3743
7.99508
-49.058
6.85301
-36.68
5.15367
-37.49
2.55256
-12.1719
7.43228
-18.9107
7.12776
-19.3854
7.54097
-19.5567
8.05297
-19.1743
9.11341
-19.2112
10.064
-19.9627
11.0433
-22.2521
11.641
-26.1045
11.8357
-31.7078
11.7226
-38.9232
11.4842
-48.2509
11.1486
-60.0182
10.5965
-74.8965
9.81416
-87.1386
9.29803
-94.133
9.13539
-97.667
8.93046
-89.3097
8.26394
-50.469
7.04217
-38.5685
5.1788
-40.1162
2.62185
-14.7938
6.78125
-17.425
6.38668
-18.1696
6.63937
-18.4838
6.97336
-18.4771
7.90724
-17.9681
8.87772
-18.0249
10.017
-18.9363
10.8395
-21.4507
11.2634
-25.5322
11.3573
-31.3425
11.0802
-38.5193
10.6464
-47.7488
10.2327
-59.6545
9.78457
-74.867
9.26822
-87.1088
9.04911
-94.0467
9.05391
-97.7905
9.01911
-90.0649
8.50257
-51.9294
7.21579
-40.6055
5.20002
-42.6944
2.67519
-17.4689
6.15886
-15.8703
5.72473
-16.763
5.8536
-17.3838
6.00999
-17.5204
6.76243
-17.3323
7.62539
-16.7158
8.87257
-16.8805
9.81133
-17.9082
10.5265
-20.7138
10.8674
-25.0423
10.7251
-30.9874
10.1621
-38.035
9.5979
-47.114
9.27169
-59.1416
8.98262
-74.5814
8.80422
-86.8639
8.91683
-93.9096
9.06812
-97.8395
9.11653
-90.6788
8.75592
-53.4695
7.3746
-42.78
5.21043
-45.2296
2.72809
-20.197
5.58935
-14.2945
5.13587
-15.2814
5.17649
-16.0859
5.1994
-16.5732
5.76281
-16.5208
6.41837
-16.1253
7.63757
-15.4808
8.65854
-15.7277
9.61966
-17.0014
10.1977
-20.0441
10.2968
-24.6141
9.88689
-30.7121
9.14033
-37.5775
8.56259
-46.4049
8.3339
-58.4929
8.30959
-74.0867
8.56102
-86.5081
8.87788
-93.7194
9.09848
-97.8215
9.26558
-91.1885
8.99886
-55.0938
7.49825
-45.0679
5.22228
-47.7238
2.77668
-22.9737
5.21846
-13.0542
4.68001
-13.8386
4.59496
-14.6999
4.54587
-15.4324
4.93594
-15.7464
5.39738
-15.4998
6.40193
-14.8896
7.44475
-14.267
8.61905
-14.7271
9.39427
-16.1979
9.72808
-19.4753
9.61349
-24.3407
8.89735
-30.4691
7.90437
-36.9192
7.37152
-45.4425
7.46776
-57.651
7.8104
-73.3361
8.35169
-85.9819
8.91851
-93.5394
9.1963
-97.7522
9.45005
-91.6397
9.22397
-56.8195
7.61236
-47.4579
5.24195
-50.1891
2.82928
-25.803
5.0437
-11.7692
4.51655
-12.8908
4.19832
-13.442
4.00505
-14.1591
4.27977
-14.7762
4.56795
-14.917
5.36782
-14.4657
6.21425
-13.6591
7.51325
-13.1612
8.42662
-13.7594
9.04022
-15.5101
9.18026
-19.0421
8.70229
-24.1456
7.56743
-30.1322
6.53381
-36.0815
6.37101
-44.3457
6.85937
-56.7
7.47144
-72.4559
8.35074
-85.4141
8.97978
-93.3229
9.31298
-97.6151
9.62728
-92.043
9.42315
-58.6303
7.71667
-49.9327
5.26963
-52.6295
2.87136
-28.6743
5.01111
-10.8337
4.54651
-11.7992
4.04563
-12.7381
3.71095
-13.1479
3.73492
-13.6142
3.91033
-14.1186
4.52008
-14.0692
5.19114
-13.4426
6.32813
-12.474
7.33301
-12.0676
8.17358
-12.8928
8.62827
-14.9581
8.44593
-18.7857
7.57983
-24.158
6.24404
-29.8424
5.35205
-35.0626
5.58942
-43.0758
6.4079
-55.6365
7.30903
-71.4141
8.33741
-84.7717
9.07537
-93.0853
9.4515
-97.4393
9.81529
-92.4351
9.62199
-60.5356
7.81795
-52.481
5.29444
-55.0525
2.92236
-31.5967
5.0569
-9.74668
4.76681
-11.054
4.16762
-11.9212
3.55831
-12.5854
3.40659
-12.8196
3.36707
-13.071
3.83972
-13.4382
4.33184
-13.2099
5.30973
-12.4242
6.17949
-11.3205
7.21104
-11.105
7.84734
-12.1118
8.00472
-14.5169
7.48456
-18.6904
6.31186
-24.2258
4.77959
-29.27
4.20537
-33.6785
5.07407
-41.7419
6.2004
-54.5278
7.26532
-70.342
8.46656
-84.1629
9.18786
-92.8216
9.61107
-97.2351
10.0195
-92.8327
9.79403
-62.5117
7.89152
-55.0781
5.33779
-57.468
2.96976
-34.5665
5.22433
-9.21308
5.0345
-10.0144
4.60176
-11.4882
3.69441
-12.0573
3.22123
-12.4001
2.96708
-12.4196
3.26176
-12.493
3.62125
-12.7276
4.42207
-12.3223
5.16633
-11.411
6.19331
-10.3028
6.97477
-10.2325
7.31995
-11.4271
7.20841
-14.2407
6.4237
-18.8023
4.89817
-24.3444
3.50397
-28.5686
3.66479
-32.2692
4.97318
-40.5147
6.18593
-53.4485
7.36929
-69.2448
8.56708
-83.5422
9.33489
-92.5455
9.81555
-97.0311
10.2116
-93.2503
9.93163
-64.5518
7.97737
-57.7176
5.38742
-59.8856
3.01745
-37.5839
5.86775
-11.1029
5.5684
-9.74698
5.11401
-10.5266
4.25331
-12.0471
3.36326
-12.1993
2.69814
-12.1311
2.75549
-11.9133
2.99045
-11.8622
3.65435
-11.9599
4.24912
-11.405
5.21925
-10.437
6.02584
-9.35383
6.58541
-9.49793
6.75177
-10.9704
6.35792
-14.1749
5.14394
-19.048
3.51712
-24.3576
2.68654
-27.5903
3.54544
-30.8415
5.01396
-39.3428
6.26172
-52.3409
7.4804
-68.1581
8.77134
-82.9786
9.53309
-92.263
10.0202
-96.8397
10.3733
-93.6919
10.052
-66.6264
8.04438
-60.3746
5.43845
-62.3066
3.06896
-40.6529
6.15028
-12.3895
6.45727
-11.9917
6.04825
-10.6812
5.03877
-11.3121
3.99006
-12.6739
2.79822
-12.2994
2.333
-11.7087
2.35953
-11.2824
2.94022
-11.1481
3.41899
-11.1298
4.26984
-10.4556
5.03956
-9.4507
5.79403
-8.56244
6.21049
-8.95664
6.07036
-10.6829
5.16165
-14.1927
3.67068
-19.2016
2.37037
-24.0414
2.29776
-26.3427
3.65762
-29.4851
5.17682
-38.2579
6.38233
-51.2428
7.68788
-67.0746
8.96582
-82.4113
9.73171
-91.9745
10.2222
-96.6886
10.5299
-94.1698
10.1484
-68.7304
8.10321
-63.0393
5.49991
-64.7376
3.12298
-43.7758
6.12813
-11.9464
6.6026
-12.5348
6.97296
-12.9165
6.45265
-12.0951
5.01863
-12.3406
3.51
-13.3856
2.28838
-12.2548
1.73417
-11.0833
2.18015
-10.5223
2.63852
-10.3676
3.39418
-10.2541
4.045
-9.46105
4.8792
-8.53588
5.52443
-7.87638
5.6378
-8.52409
5.09471
-10.6159
3.80947
-14.3315
2.4325
-19.2637
1.70159
-23.4452
2.33066
-25.0157
3.88703
-28.1954
5.30546
-37.181
6.52758
-50.0825
7.89025
-65.9991
9.20678
-81.8864
9.9471
-91.6994
10.4236
-96.5823
10.6607
-94.6822
10.1969
-70.8242
8.15037
-65.6898
5.56461
-67.1792
3.17564
-46.9515
5.94162
-11.0826
6.43476
-11.7786
7.17853
-12.7404
7.47523
-13.939
6.94984
-14.0263
4.99742
-13.8281
2.90248
-13.9997
1.51024
-12.0308
1.37498
-10.2781
1.81774
-9.70153
2.59508
-9.56851
3.13319
-9.34234
3.93
-8.51185
4.60105
-7.61249
4.93161
-7.17019
4.79661
-8.22599
3.81384
-10.6203
2.38212
-14.2811
1.43726
-18.9994
1.47645
-22.591
2.51638
-23.6451
4.08274
-26.9726
5.46493
-36.1183
6.73439
-48.9267
8.15357
-64.9459
9.40949
-81.3488
10.1481
-91.4238
10.6108
-96.5324
10.7474
-95.2327
10.2278
-72.9016
8.20104
-68.3262
5.62176
-69.6253
3.22062
-50.1721
5.47473
-9.75023
6.07163
-10.7194
7.05398
-11.654
7.78015
-13.0453
7.99786
-14.987
7.1162
-16.1451
4.62993
-15.5555
2.05145
-14.5409
0.88796
-11.5438
0.846582
-9.30697
1.74621
-8.85265
2.31834
-8.75366
3.07806
-8.4904
3.6567
-7.5675
4.09403
-6.77491
4.24983
-6.62342
3.59805
-8.0102
2.25729
-10.4955
1.01151
-13.8553
0.96331
-18.4862
1.51967
-21.5943
2.69604
-22.2584
4.3121
-25.8198
5.68671
-35.0706
6.96883
-47.7419
8.36486
-63.9012
9.61979
-80.8205
10.3595
-91.1725
10.7617
-96.5467
10.8238
-95.8286
10.2339
-74.9345
8.22493
-70.9294
5.66815
-72.0729
3.26576
-53.4379
4.82321
-8.00055
5.36774
-9.04634
6.52573
-10.1912
7.53743
-11.4113
8.3434
-13.3908
8.0756
-15.9464
6.37352
-17.8887
3.47558
-16.9796
0.91032
-14.5633
0.0235705
-10.7208
0.684137
-8.2449
1.48065
-8.01496
2.32175
-7.99735
2.81675
-7.65044
3.35054
-6.82401
3.62606
-6.15113
3.23295
-6.25832
2.147
-7.8999
0.771795
-10.2557
0.367408
-13.2594
0.898866
-17.8654
1.60679
-20.5051
2.97478
-20.921
4.53092
-24.664
5.91221
-34.014
7.18895
-46.566
8.60053
-62.882
9.81115
-80.2721
10.5225
-90.9334
10.9071
-96.6301
10.8763
-96.471
10.2177
-76.9272
8.24624
-73.5075
5.71463
-74.5217
3.30498
-56.7428
4.08935
-6.48642
4.4638
-7.09661
5.54364
-8.06424
6.61558
-9.26932
7.86707
-10.935
8.28678
-13.602
7.13073
-16.7037
4.0886
-18.5017
1.0367
-17.106
-0.625226
-13.9145
-0.524175
-9.51249
0.390838
-7.15509
1.56118
-7.25439
2.067
-7.24761
2.67361
-6.97352
2.9716
-6.16956
2.72592
-5.64411
1.97543
-6.08675
0.755128
-7.88324
0.0674755
-9.9558
0.328064
-12.6886
0.845366
-17.104
1.85461
-19.3849
3.19354
-19.5837
4.81021
-23.562
6.09226
-32.9173
7.41175
-45.3772
8.78236
-61.8532
9.95662
-79.7062
10.7037
-90.7299
11.0338
-96.7876
10.9073
-97.1607
10.1747
-78.8557
8.25531
-76.0482
5.75944
-76.9762
3.33668
-60.0795
3.2537
-5.21542
3.44215
-5.46477
4.35444
-5.90741
5.06181
-6.51048
6.36065
-7.76291
7.22401
-9.87219
6.69983
-13.1711
3.68705
-16.3021
-0.100201
-17.3648
-1.74386
-15.9874
-1.80908
-12.6296
-1.04172
-8.07993
0.613894
-6.2078
1.3702
-6.55759
2.07059
-6.64458
2.3074
-6.30931
2.25057
-5.6942
1.7998
-5.46848
0.7801
-6.11173
0.0932933
-7.90906
-0.0264405
-9.6013
0.313476
-12.1567
0.883158
-16.1326
2.017
-18.2083
3.45826
-18.2317
4.95181
-22.4216
6.25514
-31.7607
7.60192
-44.1968
8.94891
-60.8455
10.1168
-79.1193
10.8451
-90.5413
11.1434
-97.0237
10.9058
-97.8917
10.1278
-80.7282
8.2781
-78.5668
5.80041
-79.4399
3.36221
-63.4417
2.00963
-3.8135
2.17417
-3.94744
2.89801
-4.00834
3.13408
-3.97968
3.96742
-4.11725
4.41851
-4.95741
3.66834
-6.8407
0.144146
-9.6282
-3.51795
-12.8844
-4.37894
-14.7297
-3.59161
-14.2049
-2.75692
-10.9144
-0.991414
-6.47462
0.663914
-5.50151
1.51902
-6.00603
1.7355
-6.07269
1.85937
-5.91811
1.64714
-5.54154
0.922586
-5.61097
0.186792
-6.20522
-0.11843
-7.81707
-0.130651
-9.15717
0.259587
-11.5332
0.974716
-15.0903
2.17774
-16.9278
3.69007
-16.97
5.11278
-21.2792
6.41124
-30.5701
7.80534
-43.0532
9.10701
-59.8357
10.2419
-78.5161
10.9922
-90.39
11.2224
-97.3403
10.9051
-98.6689
10.0805
-82.5307
8.28032
-81.0467
5.84469
-81.9224
3.37934
-66.8211
0.704255
-2.33207
0.512939
-2.15227
0.638902
-1.68834
0.507522
-1.38178
0.588732
-0.600987
0.123138
0.178123
-1.57209
0.283021
-5.07587
-1.62068
-8.32799
-4.81816
-8.55
-8.7133
-6.51746
-11.8039
-4.77777
-12.184
-3.17982
-8.72599
-0.732314
-5.07839
1.10081
-5.0833
1.26346
-5.53398
1.51729
-5.73061
1.42108
-5.69206
1.01718
-5.63613
0.310003
-5.73418
-0.13528
-6.18838
-0.50286
-7.44486
-0.386796
-8.51079
0.264849
-10.8233
1.11974
-14.0323
2.39899
-15.6367
3.88943
-15.7466
5.23059
-20.0986
6.60875
-29.3735
8.00017
-41.9464
9.25807
-58.8519
10.3863
-77.9102
11.0881
-90.2557
11.3071
-97.7424
10.8963
-99.4847
10.023
-84.2733
8.30061
-83.5027
5.8871
-84.4302
3.38647
-70.2075
-0.0642052
-2.0925
-0.426284
-1.39285
-0.886146
-0.627221
-1.62081
0.439992
-2.23265
1.43961
-3.25446
2.77661
-5.06103
3.66707
-7.85196
3.05911
-10.6076
0.658896
-11.1483
-2.21985
-9.88723
-5.34353
-7.28345
-9.29819
-5.50133
-9.86251
-3.01582
-6.44248
0.313922
-4.29151
1.0088
-4.82864
1.20124
-5.21793
1.12203
-5.43156
0.938937
-5.61382
0.455856
-5.78198
-0.0751768
-5.79428
-0.705972
-5.98526
-0.828634
-7.00302
-0.49466
-7.75128
0.222185
-9.92575
1.14296
-12.7762
2.62151
-14.3688
4.07295
-14.589
5.3473
-18.8371
6.78734
-28.1606
8.1932
-40.8815
9.41282
-57.8783
10.4912
-77.3133
11.211
-90.1596
11.3834
-98.2295
10.8837
-100.345
9.97155
-85.9443
8.30397
-85.9195
5.92931
-86.973
3.39589
-73.6034
-0.517552
-2.23437
-0.761055
-1.75773
-1.18568
-1.09331
-2.06337
-0.184655
-2.88853
1.09587
-4.42658
2.61173
-6.02413
3.73971
-7.98643
3.80153
-10.3537
2.80525
-11.4489
0.959529
-11.0466
-1.06051
-9.67572
-2.95126
-7.66067
-7.13885
-5.47382
-7.40451
-1.47689
-4.65168
0.873357
-4.15606
1.08124
-4.70864
0.849128
-4.94502
0.799182
-5.29181
0.46109
-5.61906
0.0435264
-5.90069
-0.721865
-5.77839
-1.05112
-5.76278
-1.22388
-6.2738
-0.889584
-6.63951
0.0174271
-8.80022
1.28415
-11.4389
2.77694
-13.0728
4.12963
-13.3713
5.42953
-17.4793
6.97738
-26.9448
8.34801
-39.8167
9.54908
-56.9362
10.6228
-76.7252
11.3129
-90.0891
11.4509
-98.7967
10.8679
-101.242
9.91805
-87.5584
8.31439
-88.3046
5.98542
-89.5625
3.39156
-76.995
-0.779473
-2.43379
-0.934768
-2.06066
-1.40222
-1.54119
-2.07898
-1.0777
-2.77993
-0.293248
-4.175
0.844294
-5.79407
2.38167
-7.80019
3.55347
-9.69749
3.14531
-10.8698
2.22614
-11.0007
0.913658
-10.3165
-0.419776
-8.95542
-1.65651
-7.11001
-5.50266
-3.90199
-4.9794
0.49821
-4.27653
1.08402
-4.15884
0.801814
-4.66133
0.65991
-4.80575
0.378663
-5.20938
0.0522287
-5.62776
-0.609916
-6.01263
-1.10658
-5.72293
-1.57513
-5.41153
-1.54104
-5.62234
-1.22264
-5.39945
-0.324441
-7.19163
1.32146
-9.9834
2.8218
-11.765
4.1981
-12.1399
5.53742
-16.0393
7.11313
-25.7099
8.49479
-38.7624
9.69363
-56.007
10.7383
-76.1506
11.4208
-90.059
11.5189
-99.4477
10.8532
-102.177
9.85895
-89.1029
8.33753
-90.6567
6.03435
-92.2053
3.38456
-80.3795
-0.953724
-2.60136
-1.04331
-2.32524
-1.5547
-1.90818
-2.18057
-1.4396
-2.93829
-0.919351
-3.87878
-0.589474
-5.16409
0.214311
-6.86821
1.44969
-8.80717
2.66315
-10.0644
2.33989
-10.3905
1.61595
-10.1405
0.737742
-9.16074
-0.214459
-7.56448
-1.20204
-5.31509
-4.08956
-0.628313
-3.85288
1.16974
-4.36224
0.955026
-4.31206
0.63789
-4.63931
0.289512
-4.7166
0.0471791
-5.20433
-0.49549
-5.74218
-1.00693
-6.11228
-1.75015
-5.54791
-1.92836
-5.02421
-1.98457
-4.86041
-1.60152
-4.12237
-0.359933
-5.51024
1.24336
-8.40496
2.94245
-10.5093
4.26795
-10.8704
5.59482
-14.521
7.24716
-24.4623
8.61758
-37.6864
9.84522
-55.1139
10.8608
-75.5905
11.5273
-90.0673
11.5721
-100.167
10.8275
-103.145
9.83149
-90.5969
8.35633
-92.9787
6.08348
-94.9043
3.38045
-83.76
-1.07777
-2.73928
-1.11073
-2.53394
-1.63065
-2.24929
-2.16793
-1.92082
-2.94414
-1.43375
-3.81388
-0.984252
-4.95207
-0.80149
-6.04587
-0.608028
-7.54223
0.184745
-8.80829
1.40703
-9.55816
1.50754
-9.53884
1.01425
-8.89305
0.470048
-7.55089
-0.228052
-5.34876
-1.16838
-1.45263
-3.26525
1.37844
-4.06159
1.2219
-4.62912
0.724769
-4.39894
0.381565
-4.73136
0.0341431
-4.70356
-0.419489
-5.28033
-0.885466
-5.86365
-1.71116
-6.15126
-2.12589
-5.35039
-2.4591
-4.54968
-2.37738
-4.08455
-1.8715
-2.61081
-0.618869
-3.64801
1.29172
-6.75423
2.96002
-9.20139
4.25998
-9.53558
5.72114
-12.995
7.35357
-23.1983
8.75896
-36.6001
9.97813
-54.2313
10.9582
-75.0214
11.6182
-90.1134
11.6156
-100.955
10.838
-104.152
9.78515
-92.0257
8.3791
-95.2743
6.15229
-97.6761
3.35765
-87.1176
-1.16992
-2.85497
-1.15481
-2.6952
-1.675
-2.48959
-2.16091
-2.25631
-2.87499
-1.98997
-3.66173
-1.5859
-4.70879
-1.22754
-5.83707
-1.0103
-6.91485
-1.23541
-7.78426
-0.839288
-8.42879
0.277663
-8.80758
0.776279
-8.40958
0.530783
-7.21913
0.138292
-5.37258
-0.204231
-0.712945
-1.90806
1.58794
-3.47475
1.52729
-4.36698
0.996069
-4.90041
0.588137
-4.60551
0.105921
-4.80314
-0.34262
-4.78043
-0.772244
-5.39355
-1.51228
-6.06253
-2.15171
-6.12544
-2.7211
-5.08839
-2.90001
-4.02705
-2.74005
-3.21601
-2.27203
-0.957646
-0.839238
-1.51705
1.24758
-5.04179
2.76585
-7.70726
4.37009
-8.18452
5.81499
-11.4564
7.45038
-21.8897
8.84979
-35.4718
10.0909
-53.364
11.0475
-74.4508
11.7017
-90.1995
11.673
-101.79
10.832
-105.199
9.75985
-93.4064
8.43804
-97.5601
6.18894
-100.507
3.33903
-90.4566
-1.24678
-2.9449
-1.18824
-2.82153
-1.68411
-2.6861
-2.16755
-2.48295
-2.83552
-2.29578
-3.55108
-2.10062
-4.46281
-1.83188
-5.58724
-1.47736
-6.62226
-1.30289
-7.57131
-1.44836
-7.98513
-1.28295
-8.11624
-0.41367
-7.89241
0.259116
-6.8938
0.205456
-5.0167
-0.217585
0.50487
-1.42205
2.28632
-2.60644
1.79545
-3.74291
1.35294
-4.72385
0.863242
-5.17552
0.3489
-4.84849
-0.170914
-4.97485
-0.69336
-4.85932
-1.26035
-5.64549
-2.03105
-6.18319
-2.76522
-6.08131
-3.20793
-4.78047
-3.30993
-3.45717
-3.20502
-2.28302
-2.71554
0.918652
-1.29661
1.02714
0.879786
-3.15573
2.8903
-6.22748
4.37723
-6.74676
5.8935
-9.89952
7.51461
-20.5546
8.93238
-34.3133
10.1886
-52.5051
11.1129
-73.8621
11.7909
-90.3173
11.7124
-102.67
10.8452
-106.284
9.76832
-94.7367
8.46486
-99.836
6.24304
-103.411
3.31725
-93.7739
-1.32248
-3.02413
-1.22015
-2.91299
-1.67618
-2.82946
-2.14601
-2.70764
-2.78222
-2.53625
-3.45148
-2.39537
-4.29693
-2.26649
-5.34644
-2.07268
-6.32654
-1.77308
-7.39024
-1.48395
-8.028
-1.40549
-8.18417
-1.21502
-7.80269
-0.503389
-6.68969
0.0550081
-4.65683
-0.154415
1.40546
-1.11818
2.74381
-1.87953
2.09777
-2.90876
1.62891
-4.01888
1.22377
-5.08437
0.639712
-5.46633
0.161243
-5.18064
-0.578819
-5.08939
-1.03961
-5.08006
-1.76931
-5.90723
-2.5828
-6.36561
-3.35887
-5.93037
-3.6105
-4.4799
-3.8553
-2.80689
-3.63903
-1.35952
-3.19194
2.81398
-1.96342
3.87035
0.659514
-0.924939
2.80844
-4.65869
4.3698
-5.22306
6.01971
-8.40461
7.54413
-19.1663
8.98283
-33.1076
10.26
-51.6521
11.2101
-73.2813
11.8683
-90.4732
11.7536
-103.578
10.8994
-107.415
9.75975
-96.0316
8.5297
-102.123
6.29187
-106.386
3.28596
-97.0599
-1.44742
-3.12557
-1.25555
-2.98873
-1.67179
-2.91737
-2.11371
-2.86176
-2.7315
-2.75836
-3.34791
-2.63982
-4.14609
-2.54621
-5.17157
-2.44136
-6.13058
-2.26864
-7.17339
-1.98994
-8.02416
-1.48779
-8.42553
-1.16413
-8.13199
-0.885732
-6.91597
-0.277118
-4.68388
0.0820511
1.90262
-0.651578
3.15817
-1.53254
2.44336
-2.22512
1.93251
-3.21236
1.59905
-4.39417
0.948807
-5.39347
0.482986
-5.78807
-0.215809
-5.54365
-0.879835
-5.24916
-1.50572
-5.34365
-2.25555
-6.23447
-3.22809
-6.49639
-3.79211
-5.74876
-4.17405
-4.16115
-4.33436
-2.11156
-4.14217
-0.409299
-3.65471
4.50528
-2.48636
7.01622
-0.0391053
1.9226
2.64278
-2.93167
4.51611
-3.71947
6.02949
-6.88997
7.52397
-17.7074
9.03773
-31.8853
10.3683
-50.8103
11.2789
-72.6918
11.9344
-90.654
11.837
-104.516
10.9257
-108.581
9.79651
-97.2984
8.60278
-104.434
6.32706
-109.427
3.2574
-100.317
-1.65924
-3.30174
-1.33428
-3.04683
-1.67167
-2.98886
-2.08516
-2.94592
-2.68602
-2.90724
-3.26445
-2.84182
-3.99844
-2.78748
-5.00304
-2.71474
-5.97003
-2.60191
-7.03515
-2.40688
-7.99312
-2.02098
-8.58815
-1.32518
-8.51756
-0.778555
-7.3522
-0.4495
-4.91528
-0.0457101
2.37749
-0.392818
4.04528
-1.53869
3.11721
-2.20639
2.34894
-2.64155
2.04525
-3.65855
1.28113
-4.72649
0.802319
-5.7128
0.167195
-6.17108
-0.527543
-5.89595
-1.3488
-5.40608
-1.87747
-5.72174
-2.93881
-6.52376
-3.69681
-6.5917
-4.3771
-5.54571
-4.68092
-3.81458
-4.85245
-1.40128
-4.72931
0.665301
-4.07304
6.09196
-2.9825
9.95961
-0.659212
5.2246
2.46048
-0.876045
4.52351
-2.21349
6.01901
-5.38501
7.50729
-16.177
9.0903
-30.6073
10.4172
-49.9486
11.3584
-72.1158
12.0507
-90.8677
11.8739
-105.464
10.9981
-109.783
9.86715
-98.5628
8.67272
-106.779
6.36707
-112.537
3.22172
-103.539
-1.96217
-3.57279
-1.50671
-3.12932
-1.67405
-3.04445
-2.06803
-3.00598
-2.63955
-2.99239
-3.19757
-2.97412
-3.87085
-2.96941
-4.84882
-2.9417
-5.79999
-2.88478
-6.92659
-2.71046
-7.99024
-2.40976
-8.78349
-1.82563
-8.87305
-0.969688
-7.79046
-0.340294
-5.05657
-0.308211
2.97717
-0.645388
5.04269
-1.39023
4.13668
-2.55816
2.86485
-2.7223
2.45627
-3.05258
1.60424
-3.98166
1.10195
-5.02612
0.51075
-6.05635
-0.115177
-6.58345
-1.01366
-6.23108
-1.66406
-5.61949
-2.51919
-6.14136
-3.42847
-6.79209
-4.30245
-6.66635
-4.91989
-5.30675
-5.22149
-3.44554
-5.41015
-0.720446
-5.28211
1.87438
-4.51582
7.62527
-3.45564
12.756
-1.27174
8.95681
2.05886
1.5886
4.49443
-0.68891
6.00948
-3.88719
7.5059
-14.5926
9.14344
-29.3336
10.5207
-49.1109
11.4809
-71.5461
12.1063
-91.1001
11.9572
-106.423
11.097
-111.013
9.94565
-99.8357
8.76176
-109.174
6.3919
-115.707
3.19529
-106.734
-2.22424
-3.86354
-1.81876
-3.26074
-1.71514
-3.08822
-2.0618
-3.05069
-2.60244
-3.0431
-3.14314
-3.04683
-3.7651
-3.07987
-4.7027
-3.11553
-5.65083
-3.09086
-6.80784
-3.00354
-7.97449
-2.72621
-8.97108
-2.22217
-9.26535
-1.43333
-8.241
-0.51915
-5.14404
-0.252832
3.66973
-1.00077
5.58524
-1.18794
5.2452
-2.49874
3.57
-3.26331
2.93288
-3.1989
2.07628
-3.52462
1.45818
-4.33789
0.814516
-5.32989
0.252528
-6.42406
-0.59331
-7.0038
-1.37625
-6.51889
-2.20522
-5.93347
-3.00943
-6.5604
-4.03121
-7.06332
-4.86857
-6.71766
-5.47807
-5.05017
-5.78907
-3.06662
-6.00585
0.00329545
-5.80478
3.16334
-4.97442
9.14405
-3.98088
15.4652
-1.90811
12.9238
1.49345
4.58958
4.31413
1.00644
5.98582
-2.36711
7.53845
-12.9876
9.21312
-28.0261
10.6306
-48.2605
11.5711
-71.0109
12.2125
-91.3555
12.0557
-107.382
11.1963
-112.263
10.0709
-101.145
8.84163
-111.624
6.43319
-118.945
3.15402
-109.888
-2.32257
-3.92133
-2.19816
-3.48414
-1.81514
-3.16075
-2.08484
-3.06517
-2.58519
-3.06794
-3.09717
-3.08906
-3.68713
-3.1248
-4.56612
-3.21645
-5.51043
-3.25592
-6.66523
-3.23347
-7.91931
-3.05872
-9.08279
-2.6145
-9.61793
-1.86959
-8.77253
-0.901798
-5.40996
-0.253222
4.55655
-1.13966
6.09286
-1.50838
6.15375
-2.09649
4.22003
-3.14878
3.39425
-3.72469
2.64843
-3.77105
1.97531
-4.04176
1.14913
-4.6725
0.591827
-5.66919
-0.203742
-6.81363
-0.963758
-7.41628
-1.90321
-6.8209
-2.65402
-6.28887
-3.5635
-7.02812
-4.63842
-7.29348
-5.452
-6.74373
-6.03458
-4.80466
-6.40353
-2.66895
-6.56072
0.759232
-6.26773
4.45665
-5.45544
10.6186
-4.44954
18.0066
-2.54185
16.9591
0.874206
8.02951
4.1325
2.85975
5.94778
-0.776448
7.57541
-11.3499
9.30475
-26.7003
10.7415
-47.4309
11.7158
-70.5142
12.3184
-91.6182
12.1411
-108.327
11.3413
-113.534
10.2023
-102.505
8.95017
-114.141
6.43655
-122.227
3.12849
-113.017
-2.35772
-3.75503
-2.43324
-3.68625
-2.04653
-3.25275
-2.15256
-3.09304
-2.58216
-3.0682
-3.06197
-3.10314
-3.63894
-3.13725
-4.44204
-3.24888
-5.38014
-3.34674
-6.5196
-3.40155
-7.83307
-3.31971
-9.11679
-3.02472
-9.85183
-2.3806
-9.26947
-1.37265
-5.78741
-0.524348
5.59711
-1.29378
6.706
-1.7528
6.89333
-2.24796
4.88607
-2.76253
3.68093
-3.43546
3.06704
-4.1433
2.55426
-4.34999
1.7125
-4.60514
0.946544
-5.02722
0.173936
-6.04687
-0.576466
-7.20092
-1.46616
-7.85333
-2.40459
-7.07034
-3.12645
-6.72591
-4.15812
-7.50842
-5.26057
-7.48491
-6.01231
-6.766
-6.64172
-4.56647
-6.98439
-2.24528
-7.06804
1.55954
-6.64473
5.64593
-5.78318
11.9523
-4.92372
20.3885
-3.14408
20.9774
0.399857
11.7622
3.80795
4.99959
5.96587
0.833088
7.66336
-9.70851
9.40501
-25.3638
10.8831
-46.5982
11.8807
-70.0765
12.4168
-91.8938
12.2636
-109.249
11.4888
-114.82
10.3859
-103.941
9.01339
-116.717
6.46743
-125.566
3.09044
-116.107
-2.3634
-3.53778
-2.54281
-3.64546
-2.34864
-3.38414
-2.26984
-3.13546
-2.61674
-3.05845
-3.0541
-3.07608
-3.60894
-3.13314
-4.34078
-3.23852
-5.25402
-3.37499
-6.37608
-3.49026
-7.71596
-3.51866
-9.08688
-3.34962
-9.97917
-2.89737
-9.64698
-2.00309
-6.25074
-0.909326
6.16116
-1.08841
7.18879
-1.77657
7.39714
-2.25661
5.63813
-3.00002
4.25279
-3.33439
3.53876
-3.90718
2.95478
-4.54381
2.29493
-4.93242
1.49031
-5.1489
0.628333
-5.48161
-0.192442
-6.43089
-1.04478
-7.6223
-1.99288
-8.26504
-2.88441
-7.31238
-3.63232
-7.25171
-4.8292
-7.93979
-5.8226
-7.67462
-6.62006
-6.78766
-7.25782
-4.29303
-7.52969
-1.78363
-7.49848
2.4133
-6.95536
6.81811
-6.12774
13.1563
-5.31814
22.5625
-3.66454
25.0418
-0.216536
15.7866
3.66886
7.2966
5.98858
2.50787
7.76111
-8.06462
9.50324
-23.9839
11.0358
-45.7533
12.0478
-69.7075
12.5483
-92.1786
12.3788
-110.139
11.6995
-116.134
10.5331
-105.461
9.11555
-119.366
6.45707
-128.933
3.0689
-119.176
-2.3571
-3.30506
-2.60217
-3.47842
-2.5564
-3.43771
-2.4629
-3.19108
-2.69057
-3.06163
-3.07174
-3.04081
-3.59442
-3.0906
-4.27927
-3.19465
-5.12883
-3.36371
-6.22839
-3.52268
-7.57405
-3.63217
-9.01202
-3.59352
-10.04
-3.28882
-9.89427
-2.65008
-6.65109
-1.60275
6.05283
-0.800991
7.57352
-1.47314
7.73141
-2.11084
6.33517
-2.95364
5.03387
-3.7811
4.12809
-3.92371
3.35098
-4.30338
2.62391
-4.87279
2.00084
-5.44296
1.17432
-5.69489
0.264502
-5.93856
-0.640143
-6.83553
-1.52731
-8.08787
-2.52037
-8.62907
-3.36822
-7.57648
-4.24528
-7.83563
-5.44843
-8.31396
-6.42097
-7.87371
-7.2248
-6.82068
-7.86841
-3.95431
-8.0047
-1.27741
-7.94653
3.40447
-7.43393
8.12431
-6.53588
14.374
-5.81949
24.7175
-4.2567
29.0819
-0.671353
20.1269
3.32776
9.95743
6.08472
4.18426
7.88132
-6.4427
9.60194
-22.55
11.2212
-44.9267
12.28
-69.4392
12.6869
-92.4866
12.5646
-111.004
11.8725
-117.473
10.7352
-107.081
9.16445
-122.073
6.47373
-132.338
3.04646
-122.223
-2.33965
-3.08919
-2.62541
-3.28181
-2.71466
-3.32016
-2.64641
-3.2542
-2.81472
-3.06694
-3.12106
-3.01231
-3.60805
-3.02717
-4.24754
-3.12233
-5.02016
-3.30332
-6.0911
-3.501
-7.41315
-3.68359
-8.87157
-3.77262
-10.0454
-3.5881
-10.0538
-3.12926
-7.12183
-2.17934
5.65778
-1.2077
8.03089
-1.25836
8.11219
-1.85391
7.08362
-2.85929
5.6499
-3.56968
4.58149
-4.23451
3.8287
-4.40144
2.98726
-4.66673
2.31107
-5.18302
1.54024
-5.80887
0.78631
-6.2167
-0.185459
-6.39324
-1.06807
-7.29477
-2.08153
-8.52672
-3.01293
-8.98436
-3.90736
-7.9144
-4.87698
-8.40708
-6.03761
-8.69732
-7.04708
-8.05143
-7.86304
-6.82606
-8.40699
-3.55202
-8.49244
-0.731502
-8.53565
4.50619
-8.10339
9.69182
-7.35155
15.9061
-6.54228
27.0031
-4.86242
33.273
-1.33554
24.7902
3.15115
12.891
6.17289
5.8927
8.05976
-4.90052
9.69989
-21.0287
11.4054
-44.0521
12.5014
-69.2537
12.8927
-92.8148
12.7138
-111.845
12.121
-118.859
10.8896
-108.806
9.2494
-124.849
6.46693
-135.758
3.02036
-125.243
-2.31915
-2.87329
-2.64175
-3.07285
-2.83427
-3.16221
-2.77953
-3.18704
-2.98343
-3.08549
-3.20894
-2.97907
-3.65304
-2.96732
-4.23959
-3.03512
-4.93884
-3.20366
-5.95309
-3.44133
-7.25232
-3.66183
-8.71872
-3.83643
-9.99219
-3.82583
-10.1475
-3.49443
-7.60673
-2.64436
4.86747
-1.38903
8.10538
-1.28218
8.32434
-1.47051
7.77882
-2.54911
6.36502
-3.57441
5.08179
-4.06997
4.23439
-4.6402
3.44336
-4.85754
2.66151
-5.01717
1.82233
-5.46511
1.16747
-6.19003
0.289788
-6.69195
-0.597263
-6.86404
-1.61757
-7.75873
-2.56233
-8.97732
-3.57282
-9.3189
-4.46565
-8.32573
-5.49488
-8.94981
-6.66732
-9.07709
-7.65589
-8.25858
-8.50499
-6.72806
-8.87757
-3.16689
-9.09992
-0.167238
-9.26966
5.67246
-9.20291
11.5432
-8.53392
17.8977
-7.51649
29.6571
-5.64572
37.5832
-1.91185
29.8532
2.79834
16.2656
6.26203
7.69043
8.20957
-3.4102
9.81092
-19.4343
11.6257
-43.1764
12.8099
-69.1709
13.0765
-93.1775
12.9725
-112.697
12.3243
-120.294
11.09
-110.646
9.30474
-127.686
6.44315
-139.181
3.00374
-128.247
-2.27855
-2.66557
-2.64773
-2.86731
-2.92551
-2.9816
-2.90103
-3.04071
-3.1043
-3.06616
-3.34654
-2.94788
-3.71673
-2.91537
-4.27042
-2.93649
-4.89002
-3.08394
-5.82121
-3.33553
-7.09105
-3.6026
-8.52871
-3.85184
-9.9027
-3.92592
-10.1856
-3.78777
-8.03186
-3.06929
3.72323
-1.50012
7.92837
-1.21202
8.35952
-1.31737
8.47343
-2.16512
7.11167
-3.29576
5.70578
-4.1984
4.83777
-4.67335
3.78815
-4.98499
2.95836
-5.15439
2.12785
-5.32269
1.40525
-5.70288
0.633274
-6.53352
-0.166715
-7.12249
-1.13623
-7.34538
-2.10253
-8.21853
-3.09424
-9.4559
-4.15138
-9.63317
-5.02208
-8.79853
-6.11146
-9.50567
-7.30926
-9.42371
-8.28459
-8.47898
-9.08734
-6.51829
-9.44391
-2.82289
-9.79612
0.35923
-10.2062
6.67578
-10.4643
13.4736
-9.88685