/*--------------------------------*- C++ -*----------------------------------*\
| =========                 |                                                 |
| \\      /  F ield         | OpenFOAM: The Open Source CFD Toolbox           |
|  \\    /   O peration     | Version:  2212                                  |
|   \\  /    A nd           | Website:  www.openfoam.com                      |
|    \\/     M anipulation  |                                                 |
\*---------------------------------------------------------------------------*/
FoamFile
{
    version     2.0;
    format      ascii;
    arch        "LSB;label=32;scalar=64";
    class       volScalarField;
    location    "100";
    object      k;
}
// * * * * * * * * * * * * * * * * * * * * * * * * * * * * * * * * * * * * * //

dimensions      [0 2 -2 0 0 0 0];

internalField   nonuniform List<scalar> 
165000
(
0.00241586
0.997978
0.00233474
6.18763
0.855621
0.00239386
13.0017
5.33351
0.692697
0.00273987
9.25053
13.7138
4.24209
0.562799
0.00329269
4.28801
8.65364
13.9086
3.38367
0.479348
0.00463556
1.96969
3.75381
8.39607
14.5022
2.95413
0.472137
0.0064775
0.860739
1.64616
3.54254
7.95116
14.9955
2.99395
0.489643
0.00913991
0.341294
0.685043
1.52586
3.17047
7.57788
15.9978
3.30679
0.560564
0.0184452
0.108398
0.25549
0.62331
1.32588
2.97409
7.2985
16.8895
4.11812
1.14684
0.0494449
0.0197973
0.074132
0.227479
0.527282
1.22927
2.67371
6.93272
18.0852
11.1409
2.49331
0.203189
0.00241243
0.0124355
0.0638716
0.187767
0.48133
1.07081
2.51713
6.65744
18.3538
16.9137
7.23085
0.426576
0.000281738
0.00136745
0.0104279
0.0519754
0.168803
0.407653
0.994984
2.29365
6.26733
17.9358
29.8611
9.56437
0.568109
7.95946e-05
0.000174162
0.0011899
0.00857128
0.0461343
0.139461
0.372699
0.873654
2.17373
5.92456
18.5415
50.8301
8.81988
0.574374
6.78289e-05
6.98304e-05
0.000151421
0.00126809
0.00764389
0.0374049
0.125577
0.316941
0.814754
1.99222
5.66083
19.4032
36.8017
7.59997
0.529701
9.14877e-05
6.74948e-05
6.75527e-05
0.00014217
0.00127036
0.00639488
0.033293
0.103838
0.290299
0.719131
1.89694
5.49266
19.1623
34.3743
6.35037
0.468345
0.000113457
9.7384e-05
6.56165e-05
6.49421e-05
0.000133157
0.000976896
0.00578135
0.0270415
0.0935103
0.24744
0.67243
1.75283
5.37031
18.7087
34.8729
5.07243
0.395461
0.000115321
0.000113976
9.95846e-05
6.47138e-05
6.35986e-05
0.0001201
0.000779837
0.00496045
0.0240864
0.0772026
0.226823
0.592257
1.66587
5.26027
18.9238
34.6101
3.99733
0.32775
0.000106562
0.000114568
0.000115048
0.000101399
6.40869e-05
6.17144e-05
0.00010663
0.000626053
0.00433693
0.0194978
0.0694154
0.192618
0.552313
1.53395
5.06805
19.2172
35.3494
3.08663
0.261669
7.9549e-05
0.000102299
0.000113977
0.000113812
0.000100691
6.34341e-05
6.05401e-05
9.48613e-05
0.000552565
0.00357226
0.0173139
0.056862
0.175971
0.480109
1.42645
4.86523
17.9058
36.0831
2.33036
0.206359
6.0335e-05
7.14478e-05
8.98909e-05
0.000109411
0.000113491
0.000100753
6.29707e-05
5.87301e-05
8.86666e-05
0.000549462
0.00318225
0.0139722
0.050847
0.147379
0.442356
1.29684
4.51514
17.4654
36.902
1.74106
0.161325
5.32892e-05
5.68252e-05
6.45204e-05
8.12687e-05
0.000104329
0.000113452
0.000103328
6.17215e-05
5.75931e-05
8.68303e-05
0.000546899
0.00273879
0.0123771
0.0411965
0.133562
0.379439
1.18451
4.28293
16.915
37.5711
1.27632
0.113065
5.03831e-05
5.19225e-05
5.41027e-05
6.1406e-05
7.0903e-05
9.83816e-05
0.000113178
0.000102583
6.15201e-05
5.62833e-05
8.34559e-05
0.00050544
0.002531
0.0100557
0.0366648
0.110884
0.347548
1.07005
3.98262
16.5927
38.1874
0.870628
0.0868726
4.97792e-05
5.00217e-05
4.99481e-05
5.12698e-05
5.69942e-05
6.64344e-05
9.23494e-05
0.000112298
0.000103368
6.0716e-05
5.55168e-05
8.21804e-05
0.000440542
0.00223795
0.00897178
0.0298899
0.10017
0.29694
0.977977
3.76573
16.016
38.7602
0.605161
0.0838887
5.06198e-05
4.99848e-05
4.85378e-05
4.86748e-05
4.96314e-05
5.44648e-05
6.25701e-05
8.80434e-05
0.000111285
0.000102926
5.92131e-05
5.35615e-05
7.91074e-05
0.000507582
0.00201445
0.00740836
0.0267212
0.0836988
0.272031
0.883865
3.41279
15.231
39.3231
0.581269
0.0759364
5.12162e-05
5.04109e-05
4.96698e-05
4.85709e-05
4.7534e-05
4.75389e-05
5.25185e-05
6.07296e-05
8.59452e-05
0.000110816
0.000101945
5.94129e-05
5.16092e-05
7.9269e-05
0.000417757
0.00172965
0.00667223
0.0221519
0.0758276
0.233655
0.790403
3.16509
14.5295
39.8719
0.561486
0.0813736
5.23877e-05
5.12383e-05
5.02474e-05
4.90282e-05
4.77461e-05
4.65397e-05
4.67849e-05
5.02425e-05
5.92489e-05
8.51256e-05
0.000109287
0.000102029
5.7096e-05
4.86696e-05
7.41182e-05
0.000335978
0.00156153
0.00553175
0.0199633
0.0640753
0.212913
0.719095
2.87008
13.7257
40.2821
0.667138
0.0862204
5.61175e-05
5.22767e-05
5.13674e-05
5.00325e-05
4.87511e-05
4.76217e-05
4.62914e-05
4.539e-05
4.94019e-05
5.83092e-05
8.43833e-05
0.000109122
0.000101324
5.61998e-05
4.5766e-05
6.63576e-05
0.000285134
0.00122806
0.00498121
0.0168259
0.0585055
0.186786
0.643946
2.64071
12.8063
40.785
0.986842
0.169728
6.25647e-05
5.75376e-05
5.29702e-05
5.08082e-05
4.98997e-05
4.82447e-05
4.75731e-05
4.59168e-05
4.51316e-05
4.81835e-05
5.78095e-05
8.39292e-05
0.000109652
0.00010488
5.42307e-05
4.28046e-05
5.93843e-05
0.000224159
0.00101894
0.00409344
0.0152853
0.050248
0.169904
0.587896
2.36322
11.8995
41.4426
2.90426
0.531579
6.87556e-05
6.555e-05
5.82273e-05
5.3306e-05
5.07742e-05
4.94159e-05
4.85661e-05
4.68791e-05
4.60854e-05
4.45489e-05
4.82012e-05
5.73376e-05
8.32021e-05
0.000108905
0.000106228
5.16778e-05
3.99704e-05
5.66486e-05
0.000231057
0.0009919
0.00368726
0.0129761
0.0462614
0.151753
0.517761
2.15253
10.9311
41.4268
13.5787
3.77558
7.13577e-05
7.04784e-05
6.73361e-05
5.94607e-05
5.40219e-05
5.0335e-05
4.89013e-05
4.83247e-05
4.75128e-05
4.5897e-05
4.47186e-05
4.77602e-05
5.67349e-05
8.21237e-05
0.000107883
0.000105696
5.13175e-05
3.77676e-05
5.85578e-05
0.000204397
0.000957777
0.00310104
0.0118391
0.0401356
0.13317
0.468142
1.90674
9.81452
40.3552
35.5745
10.0424
7.36931e-05
7.24339e-05
7.09856e-05
6.86178e-05
6.07105e-05
5.3965e-05
4.98248e-05
4.86351e-05
4.82101e-05
4.74684e-05
4.58129e-05
4.51217e-05
4.82978e-05
5.63839e-05
8.04316e-05
0.000106791
0.000105366
4.96176e-05
3.59529e-05
5.30403e-05
0.000233133
0.000871339
0.00281592
0.0100095
0.0351911
0.119287
0.409151
1.72613
8.67999
39.4011
60.1828
14.3183
7.51521e-05
7.35855e-05
7.21147e-05
7.15096e-05
6.95352e-05
6.05898e-05
5.37483e-05
4.99499e-05
4.87475e-05
4.81351e-05
4.72116e-05
4.69973e-05
4.57658e-05
4.82626e-05
5.58077e-05
7.79093e-05
0.000106098
0.000108708
4.78359e-05
3.46225e-05
5.65644e-05
0.000192721
0.000863948
0.00240881
0.008837
0.0309057
0.100859
0.392605
1.7069
8.43149
38.7454
76.0431
16.5421
7.93638e-05
7.59859e-05
7.39563e-05
7.19065e-05
7.17618e-05
6.93679e-05
6.1388e-05
5.38626e-05
4.92567e-05
4.81001e-05
4.80522e-05
4.74939e-05
4.74257e-05
4.60946e-05
4.82349e-05
5.48511e-05
7.44825e-05
0.000106115
0.000111115
4.68384e-05
3.45577e-05
5.61592e-05
0.000173407
0.000621889
0.00218696
0.00795718
0.0283728
0.0973326
0.364004
1.52002
7.1647
37.143
90.6917
17.677
9.40127e-05
8.0368e-05
7.5533e-05
7.35061e-05
7.26631e-05
7.19249e-05
6.91405e-05
6.02772e-05
5.3655e-05
4.96533e-05
4.76814e-05
4.75112e-05
4.80332e-05
4.81998e-05
4.66853e-05
4.80493e-05
5.38952e-05
7.00818e-05
0.000103291
0.000113147
4.67142e-05
3.47981e-05
5.40202e-05
0.000148985
0.000551583
0.00187345
0.00815748
0.0300998
0.102722
0.381526
1.56941
7.30245
35.994
119.262
18.3683
0.000107104
9.42635e-05
8.13017e-05
7.53937e-05
7.28439e-05
7.25998e-05
7.24178e-05
6.91971e-05
6.17453e-05
5.50037e-05
4.92966e-05
4.71196e-05
4.73181e-05
4.75538e-05
4.85402e-05
4.721e-05
4.8113e-05
5.28447e-05
6.54942e-05
9.78414e-05
0.000117686
5.05412e-05
3.43538e-05
5.3223e-05
0.000126622
0.000408802
0.00171025
0.00712671
0.030785
0.0933724
0.338204
1.42989
6.59293
33.9042
128.877
18.8372
0.000119417
0.000106202
9.38123e-05
8.1992e-05
7.70097e-05
7.31061e-05
7.24953e-05
7.27391e-05
6.92177e-05
6.22581e-05
5.55596e-05
4.90426e-05
4.72918e-05
4.74663e-05
4.74759e-05
4.89834e-05
4.82014e-05
4.8563e-05
5.189e-05
6.1017e-05
9.19066e-05
0.00012414
5.35602e-05
3.49229e-05
4.49334e-05
0.000107263
0.000428322
0.00175025
0.00797613
0.0256577
0.105422
0.354955
1.5726
6.03675
31.0875
119.441
19.4193
0.000158574
0.000120478
0.000102866
9.29845e-05
8.31338e-05
7.70719e-05
7.37202e-05
7.29277e-05
7.30214e-05
7.05352e-05
6.42201e-05
5.67701e-05
4.95716e-05
4.68893e-05
4.74241e-05
4.82544e-05
4.94638e-05
4.92988e-05
4.85668e-05
5.09884e-05
5.75117e-05
8.63865e-05
0.000127234
5.74916e-05
3.51577e-05
4.47976e-05
0.000114776
0.000452997
0.00192354
0.00744595
0.0273589
0.0957534
0.356422
1.33457
5.13119
28.2153
112.452
19.9292
0.000231677
0.000157977
0.000120299
0.000102665
9.75375e-05
8.4984e-05
7.72108e-05
7.34344e-05
7.28717e-05
7.33244e-05
7.041e-05
6.50226e-05
5.85696e-05
5.02733e-05
4.68753e-05
4.71671e-05
4.90577e-05
5.00453e-05
5.04126e-05
4.96305e-05
5.03631e-05
5.50961e-05
8.0439e-05
0.000131673
6.11576e-05
3.58103e-05
4.5876e-05
9.96968e-05
0.000389666
0.00183432
0.00672052
0.0295934
0.108643
0.358868
1.1304
4.66727
25.5387
105.881
20.7101
0.000504532
0.000154153
0.000135129
0.000126729
0.000108043
9.96464e-05
8.58064e-05
7.76493e-05
7.46393e-05
7.32137e-05
7.37584e-05
7.02612e-05
6.53022e-05
5.93958e-05
5.12146e-05
4.697e-05
4.75469e-05
4.94736e-05
5.06213e-05
5.0927e-05
4.99388e-05
4.97947e-05
5.30907e-05
7.5668e-05
0.000133798
6.61914e-05
3.72557e-05
4.57119e-05
0.000104515
0.000403754
0.00160306
0.00746483
0.0301512
0.0920819
0.292031
1.00197
4.00942
23.1626
99.6036
21.7994
0.0193387
0.000151272
0.000143057
0.000134004
0.000128795
0.000109368
0.000101287
8.6132e-05
7.80722e-05
7.53107e-05
7.48187e-05
7.4318e-05
7.02295e-05
6.53376e-05
6.05957e-05
5.19189e-05
4.82562e-05
4.77717e-05
5.00514e-05
5.03915e-05
5.08741e-05
5.00161e-05
4.92978e-05
5.20047e-05
7.0734e-05
0.000136389
7.23988e-05
3.87028e-05
4.46262e-05
0.000115014
0.000462327
0.002003
0.00805123
0.0248888
0.0882044
0.257692
0.783418
3.34751
20.483
94.1424
24.1798
0.119983
0.0153719
0.000147467
0.00013851
0.000139248
0.000130233
0.000111093
0.000104045
8.70093e-05
7.99137e-05
7.66455e-05
7.58578e-05
7.42239e-05
7.0415e-05
6.57676e-05
6.11946e-05
5.33658e-05
4.92063e-05
4.86652e-05
5.02334e-05
5.03039e-05
5.15365e-05
5.00922e-05
4.91085e-05
5.14336e-05
6.7056e-05
0.000136891
7.84777e-05
4.03499e-05
4.76806e-05
0.000121198
0.000484905
0.00214063
0.00757149
0.0270118
0.0773289
0.196797
0.679566
2.97055
18.3508
89.0099
28.8916
0.762812
0.126095
0.000154539
0.000145996
0.000146451
0.000141068
0.000130881
0.000113964
0.000106678
8.89026e-05
8.07694e-05
7.81735e-05
7.67542e-05
7.46984e-05
7.05062e-05
6.59501e-05
6.22026e-05
5.41016e-05
4.9747e-05
4.91324e-05
5.00644e-05
5.10229e-05
5.14724e-05
5.03152e-05
4.89867e-05
5.09969e-05
6.38107e-05
0.000136564
8.83488e-05
4.26385e-05
4.92337e-05
0.000111043
0.000414815
0.00180778
0.00688008
0.0262248
0.0657047
0.168831
0.531341
2.42063
15.9548
84.5716
36.6494
1.61689
0.420552
0.000169713
0.00016352
0.000159993
0.000152171
0.000142354
0.000130296
0.00011629
0.000108773
9.32215e-05
8.3654e-05
7.94707e-05
7.77643e-05
7.42241e-05
7.01053e-05
6.63738e-05
6.27573e-05
5.53496e-05
5.05148e-05
4.93372e-05
5.00389e-05
5.14523e-05
5.13389e-05
5.04023e-05
4.88613e-05
5.07698e-05
6.17961e-05
0.000137547
9.86585e-05
4.51197e-05
4.95448e-05
0.000121007
0.000497588
0.00194209
0.00753944
0.0164939
0.0427529
0.124275
0.458042
2.14507
14.0576
80.5708
48.16
2.7906
0.715157
0.00172133
0.000173868
0.000182937
0.000176565
0.000158934
0.000142396
0.000130308
0.000118035
0.00011276
9.9491e-05
8.69713e-05
8.21483e-05
7.87654e-05
7.38195e-05
6.99731e-05
6.62279e-05
6.26493e-05
5.61213e-05
5.09646e-05
4.95048e-05
5.00994e-05
5.17507e-05
5.18313e-05
5.07047e-05
4.92288e-05
5.04513e-05
6.06535e-05
0.000136959
0.000116343
4.86306e-05
5.34096e-05
0.000138977
0.000528618
0.00202581
0.00461663
0.0130363
0.033717
0.10444
0.362896
1.7322
12.1347
76.9638
63.9786
4.70537
1.4637
0.00182271
0.00120501
0.000194954
0.000203007
0.000191178
0.000158259
0.000142553
0.000133491
0.000119697
0.000115678
0.000106461
9.28837e-05
8.49624e-05
7.92662e-05
7.36687e-05
7.02681e-05
6.62619e-05
6.26543e-05
5.66278e-05
5.17262e-05
4.9784e-05
5.09863e-05
5.17675e-05
5.16011e-05
5.06442e-05
4.89329e-05
5.01148e-05
6.01035e-05
0.000136203
0.000135402
5.25566e-05
5.76848e-05
0.000150557
0.000569163
0.00141882
0.00376742
0.00893633
0.0265225
0.0758679
0.304149
1.50946
10.5273
73.9802
84.3809
6.1256
2.6269
0.072889
0.00101293
0.000199905
0.000211497
0.00021718
0.000196442
0.000158332
0.000143769
0.000132774
0.00012139
0.00011842
0.000111725
0.000101227
8.86509e-05
8.03747e-05
7.39075e-05
6.95397e-05
6.68736e-05
6.3544e-05
5.72978e-05
5.22684e-05
4.97699e-05
5.08056e-05
5.1584e-05
5.16178e-05
5.0667e-05
4.9032e-05
4.96909e-05
5.81709e-05
0.000132586
0.000161765
5.80298e-05
6.21441e-05
0.00016723
0.000397212
0.00114852
0.0023581
0.0070053
0.0185664
0.0627656
0.237407
1.26397
8.99736
72.4297
109.162
8.01607
4.34746
0.0572044
0.0113022
0.00021323
0.000219275
0.000227198
0.00022007
0.000196331
0.000162937
0.00014543
0.00013212
0.00012252
0.000120105
0.000117217
0.00010988
9.39319e-05
8.09655e-05
7.33165e-05
6.88681e-05
6.66595e-05
6.41831e-05
5.77212e-05
5.289e-05
5.00834e-05
5.12399e-05
5.16054e-05
5.16712e-05
5.04751e-05
4.85559e-05
4.93095e-05
5.69346e-05
0.000124166
0.000186581
6.37116e-05
6.67166e-05
0.000128511
0.000347578
0.000675683
0.00181011
0.00481296
0.0148813
0.0467145
0.206035
1.13168
7.99251
73.5298
137.509
13.7939
7.31375
0.545395
0.0135975
0.000239697
0.000224504
0.000237827
0.000237811
0.000219703
0.0001977
0.000163831
0.000145127
0.000132361
0.000123282
0.000121112
0.000119132
0.000115054
9.96831e-05
8.20517e-05
7.31621e-05
6.82366e-05
6.6474e-05
6.43026e-05
5.79797e-05
5.34671e-05
5.05344e-05
5.09469e-05
5.16886e-05
5.09571e-05
4.90257e-05
4.76866e-05
4.81062e-05
5.31242e-05
0.000107519
0.000210896
6.96879e-05
6.79264e-05
0.000120247
0.000211112
0.00050534
0.00127122
0.00359792
0.0104707
0.0396785
0.175579
0.997521
7.48508
70.7176
168.452
30.7701
13.8393
3.61858
0.208097
0.00274756
0.000233276
0.000248398
0.000254992
0.000240817
0.000221144
0.000197257
0.000163451
0.000143356
0.000132896
0.00012403
0.000121076
0.00011953
0.000117321
0.000103836
8.28331e-05
7.35554e-05
6.77897e-05
6.64726e-05
6.4312e-05
5.82467e-05
5.37459e-05
5.02237e-05
5.08665e-05
5.08566e-05
4.90203e-05
4.68679e-05
4.57672e-05
4.55864e-05
4.87514e-05
8.5905e-05
0.000229819
7.48633e-05
7.39825e-05
9.04704e-05
0.000166444
0.000363479
0.000878511
0.0024405
0.00856726
0.0321313
0.154724
0.915457
7.10183
73.6099
201.509
46.5633
28.7056
12.7834
1.81597
0.0203268
0.000274257
0.000265302
0.000271327
0.000261835
0.000241201
0.00022015
0.000191245
0.000164031
0.000143632
0.000132727
0.000124651
0.000121061
0.000119492
0.000117971
0.000106399
8.4081e-05
7.30161e-05
6.58085e-05
6.60765e-05
6.43628e-05
5.83301e-05
5.38839e-05
5.00827e-05
5.06306e-05
4.88724e-05
4.69441e-05
4.50285e-05
4.30541e-05
4.26565e-05
4.32177e-05
6.93058e-05
0.000248199
7.83519e-05
7.43963e-05
8.41835e-05
0.000127314
0.000254535
0.000629605
0.00191396
0.00668548
0.0284443
0.136308
0.842356
6.80573
74.4547
236.645
49.4328
58.1211
28.0074
8.47982
0.441503
0.00943324
0.000303979
0.000285709
0.000288326
0.000265717
0.000240995
0.000216266
0.000178854
0.000154831
0.000141034
0.000131568
0.000125237
0.000121793
0.000119475
0.000118041
0.000108169
8.54985e-05
7.26094e-05
6.55384e-05
6.59739e-05
6.43024e-05
5.82049e-05
5.39009e-05
4.97688e-05
4.87466e-05
4.60743e-05
4.50118e-05
4.2964e-05
3.99748e-05
3.81131e-05
3.76101e-05
5.77551e-05
0.000271717
7.90072e-05
7.42087e-05
8.23008e-05
0.000117183
0.000224822
0.000505149
0.00150814
0.00578906
0.0241618
0.12391
0.75929
6.5124
72.9147
274.653
41.5874
62.6191
57.4475
24.437
3.918
0.0201074
0.000357177
0.000309172
0.000319018
0.000298023
0.000265951
0.000237137
0.000203021
0.000172162
0.000149266
0.000136874
0.00013053
0.000125946
0.000122189
0.000119579
0.000118111
0.000108375
8.69365e-05
7.15497e-05
6.467e-05
6.57955e-05
6.35453e-05
5.79792e-05
5.38967e-05
4.84159e-05
4.61288e-05
4.41031e-05
4.29877e-05
4.02194e-05
3.57397e-05
3.3064e-05
2.98081e-05
5.83069e-05
0.000293362
8.03104e-05
7.77718e-05
8.33933e-05
0.000115398
0.000195557
0.000423672
0.00130751
0.00481207
0.0218432
0.106982
0.704952
6.27933
75.9406
317.721
25.5317
50.2061
79.404
58.6303
19.03
0.332155
0.00134998
0.000360792
0.000347565
0.000332541
0.00029616
0.000262726
0.000223119
0.00018249
0.00016426
0.00014996
0.000139971
0.000134302
0.000128436
0.000122476
0.000118838
0.00011614
0.000109604
8.73229e-05
7.12865e-05
6.45438e-05
6.50834e-05
6.20775e-05
5.6996e-05
5.33772e-05
4.60648e-05
4.39987e-05
4.20728e-05
4.02653e-05
3.67507e-05
3.0376e-05
2.61003e-05
2.36838e-05
7.55751e-05
0.000278409
8.25116e-05
8.04272e-05
8.48055e-05
0.000106195
0.000182922
0.000430882
0.00110344
0.00428974
0.0183592
0.0969325
0.647684
6.11791
78.6332
371.41
13.3376
28.6664
74.585
90.6011
52.254
9.22543
0.258229
0.00144707
0.00039991
0.000357292
0.00032927
0.000288057
0.0002369
0.000201459
0.000174187
0.000164813
0.000162406
0.000151745
0.000142468
0.00013076
0.000122639
0.000117257
0.000112698
0.000108382
8.82614e-05
7.12242e-05
6.44309e-05
6.36683e-05
6.06834e-05
5.55195e-05
5.18045e-05
4.36427e-05
4.16091e-05
3.95875e-05
3.69041e-05
3.25268e-05
2.40883e-05
1.97543e-05
1.98649e-05
0.000145788
0.000217721
8.65945e-05
8.11908e-05
8.3468e-05
0.000107781
0.000180841
0.000356489
0.000967119
0.00349882
0.0162578
0.0861452
0.600513
5.92435
78.5341
447.517
6.40824
13.5187
44.8382
89.5078
96.0615
42.729
2.17009
0.00333085
0.000464841
0.000394324
0.000356662
0.000316731
0.000262599
0.000215033
0.000196684
0.000179531
0.000180348
0.000184006
0.000173219
0.000154937
0.000136339
0.000123303
0.000114571
0.000108896
0.000105065
8.84216e-05
7.0059e-05
6.40549e-05
6.21193e-05
5.85693e-05
5.38409e-05
4.94974e-05
4.08633e-05
3.85199e-05
3.65537e-05
3.31053e-05
2.79944e-05
1.87628e-05
1.46365e-05
2.1999e-05
0.000198978
0.000153112
9.12693e-05
8.30041e-05
8.82859e-05
0.000107341
0.000180781
0.000347235
0.000807548
0.00306393
0.0141581
0.0761685
0.554744
5.80325
85.0804
555.552
2.97964
6.50194
18.5286
58.0916
101.641
93.0843
18.1491
0.0734336
0.00116674
0.000454282
0.000392792
0.000346476
0.000293229
0.000237492
0.000212447
0.000209044
0.000206577
0.000199116
0.00019188
0.000181039
0.000165848
0.000145443
0.000124354
0.000111817
0.000105092
0.000101202
8.87127e-05
6.95328e-05
6.29364e-05
5.97248e-05
5.62533e-05
5.17597e-05
4.66465e-05
3.76671e-05
3.54662e-05
3.32687e-05
2.91506e-05
2.34109e-05
1.46588e-05
1.2917e-05
3.46472e-05
0.000279735
9.38045e-05
9.29859e-05
8.75001e-05
9.85859e-05
0.000117779
0.000179243
0.000310287
0.000728002
0.00260114
0.0119884
0.0684859
0.513198
5.64851
84.9992
672.86
1.46069
2.7317
8.49211
22.9857
71.7492
106.861
68.2028
2.05831
0.00736309
0.000740586
0.00046036
0.000379098
0.000319709
0.000266638
0.000233472
0.000225517
0.000229437
0.000218831
0.000202919
0.000192102
0.000182327
0.000169722
0.000153707
0.000127007
0.00010939
0.000101356
9.84951e-05
8.77582e-05
6.87818e-05
6.07007e-05
5.69357e-05
5.3474e-05
4.91087e-05
4.31953e-05
3.45399e-05
3.28576e-05
2.9942e-05
2.5053e-05
1.90552e-05
1.23823e-05
1.34057e-05
8.24911e-05
0.000210863
9.94975e-05
0.000100373
9.77085e-05
0.000113057
0.000135819
0.000172407
0.000292011
0.000622457
0.00214477
0.0106312
0.0593318
0.473232
5.39461
88.1412
783.226
0.814344
1.03434
2.77321
7.31418
25.7066
63.4221
109.55
29.1197
0.0938416
0.00415194
0.000748108
0.00045376
0.000361566
0.000291268
0.000264419
0.000248369
0.000240575
0.000233761
0.000220524
0.000203548
0.000190398
0.000180659
0.000170276
0.00015774
0.00013191
0.000107631
9.82713e-05
9.50416e-05
8.48272e-05
6.68816e-05
5.83945e-05
5.37692e-05
5.0473e-05
4.61758e-05
3.89105e-05
3.17987e-05
3.00672e-05
2.67691e-05
2.0725e-05
1.49096e-05
1.20107e-05
1.70387e-05
0.000165818
0.000184506
0.000109936
0.000104572
0.000112739
0.000133842
0.000156193
0.000194923
0.00029944
0.000543628
0.00187257
0.00871875
0.0533675
0.432334
5.25863
87.195
879.569
0.492018
0.408207
0.886616
2.14902
5.39485
17.7592
71.9653
102.88
2.18893
0.0290969
0.00397902
0.000548784
0.000403252
0.000332983
0.000288318
0.000271069
0.000263378
0.000244224
0.000234099
0.000221296
0.000206581
0.000189085
0.000177162
0.000169917
0.000160723
0.000138311
0.000108058
9.48311e-05
9.15447e-05
8.26024e-05
6.51263e-05
5.5242e-05
5.07431e-05
4.7303e-05
4.27396e-05
3.45006e-05
2.93786e-05
2.72904e-05
2.35362e-05
1.65888e-05
1.26262e-05
1.26178e-05
3.21892e-05
0.000148949
0.000173535
0.000113339
0.0001131
0.000130349
0.000156474
0.000182829
0.000215605
0.000274605
0.000482613
0.00149734
0.00774053
0.0459489
0.401618
4.94235
86.8527
961.301
0.352659
0.176791
0.284273
0.58134
0.987038
2.75489
21.1079
121.695
27.3176
0.299028
0.0338758
0.000890191
0.000493061
0.00037161
0.000317314
0.000298538
0.000278578
0.000266708
0.000247083
0.000240789
0.000232187
0.000223551
0.000200337
0.000183275
0.000171325
0.000162425
0.000144399
0.000108986
9.21198e-05
8.87188e-05
7.91482e-05
6.22943e-05
5.19143e-05
4.74797e-05
4.43162e-05
3.8985e-05
3.05995e-05
2.72386e-05
2.49393e-05
1.98237e-05
1.34849e-05
1.23632e-05
1.46337e-05
6.89318e-05
0.000147853
0.000164564
0.000116059
0.000127882
0.000151393
0.0001811
0.00021333
0.000242313
0.00028572
0.000414537
0.0013129
0.00632117
0.0415253
0.359798
4.73874
85.1091
1030.61
0.276726
0.0819182
0.0974435
0.15686
0.202259
0.465606
4.16202
56.0633
119.764
3.92482
0.13831
0.0051762
0.000689094
0.000408848
0.000359776
0.000322534
0.000302647
0.000279376
0.000270505
0.000259756
0.000252045
0.000236307
0.000230313
0.000207939
0.000186361
0.000172122
0.000163774
0.000149515
0.000114936
9.09003e-05
8.46697e-05
7.52177e-05
5.89273e-05
4.81614e-05
4.47034e-05
4.08378e-05
3.51583e-05
2.73574e-05
2.52853e-05
2.22095e-05
1.56864e-05
1.24299e-05
1.30062e-05
1.96728e-05
0.000114099
0.000145879
0.000156949
0.000122979
0.000146859
0.000184271
0.000214584
0.000241043
0.000270128
0.000275117
0.000374744
0.00105863
0.00560673
0.0349492
0.331482
4.37907
86.5886
1090.13
0.280514
0.0500178
0.0373393
0.0437601
0.0434044
0.0815603
0.975884
15.542
122.59
28.4704
0.747106
0.0425946
0.00107268
0.000555592
0.000399968
0.000347119
0.000324552
0.000303136
0.000283618
0.000274326
0.000262839
0.000252849
0.000236368
0.00022932
0.000211315
0.000191339
0.000173984
0.00016585
0.000154543
0.000119456
9.12499e-05
8.22278e-05
7.11424e-05
5.50998e-05
4.49782e-05
4.1308e-05
3.77508e-05
3.09443e-05
2.49892e-05
2.31296e-05
1.9256e-05
1.30363e-05
1.26293e-05
1.39635e-05
2.92857e-05
0.000132975
0.000138911
0.0001387
0.000129673
0.000177718
0.000199517
0.000243793
0.000278536
0.000286436
0.000283321
0.000343811
0.00093104
0.00448457
0.0313747
0.290595
4.13906
75.1973
1142.51
0.46058
0.0315037
0.017974
0.0144653
0.0108877
0.019076
0.236102
3.97302
61.2408
70.4739
7.7652
0.29649
0.00632845
0.00069093
0.000443691
0.000395708
0.000350642
0.000318834
0.000302481
0.000289461
0.000274984
0.000262312
0.000252276
0.000234708
0.000223627
0.00021421
0.000197709
0.000183601
0.000173377
0.000159576
0.000129143
9.25835e-05
8.1171e-05
6.61599e-05
5.13117e-05
4.15029e-05
3.86304e-05
3.42781e-05
2.71962e-05
2.357e-05
2.10942e-05
1.59174e-05
1.23669e-05
1.33538e-05
1.37379e-05
4.42602e-05
0.000136004
0.000132226
0.00014135
0.000146076
0.000195552
0.00022928
0.000278085
0.000313857
0.000312193
0.000273013
0.000315099
0.000749956
0.00392028
0.0256085
0.261511
3.72963
74.9358
1189.48
0.472283
0.0368138
0.0105696
0.00633647
0.00389006
0.00417992
0.05479
1.40329
23.6016
154.196
42.6582
2.02083
0.0852931
0.00189714
0.000614675
0.000429174
0.00037727
0.000343389
0.000319361
0.000303336
0.000290495
0.000275659
0.00026075
0.000251282
0.00023393
0.000230105
0.00022579
0.000219863
0.000214121
0.000205175
0.000180741
0.000144531
9.89415e-05
8.30315e-05
6.25035e-05
4.71046e-05
3.89618e-05
3.56169e-05
3.09158e-05
2.38419e-05
2.1909e-05
1.82863e-05
1.33722e-05
1.25511e-05
1.37989e-05
1.26479e-05
6.25992e-05
0.000175898
0.000136126
0.000147278
0.000164617
0.000210439
0.00028519
0.000312439
0.000348878
0.000317192
0.000269476
0.000284308
0.000660567
0.00303578
0.0223439
0.225863
3.44568
71.4746
1232.05
0.853593
0.0327966
0.00846028
0.00373206
0.00223598
0.00193143
0.0126624
0.296006
9.88347
184.224
105.192
10.7659
0.661445
0.0142092
0.000778816
0.000492964
0.00041806
0.000372104
0.000337982
0.000318242
0.000301412
0.00029013
0.000276501
0.000260176
0.000261252
0.000253097
0.000264253
0.000274175
0.000297843
0.000317282
0.000301198
0.00024733
0.000181428
0.000115147
8.65042e-05
5.8877e-05
4.36418e-05
3.61422e-05
3.29807e-05
2.68523e-05
2.23492e-05
1.98703e-05
1.58748e-05
1.28454e-05
1.30218e-05
1.23675e-05
1.27981e-05
7.71687e-05
0.000204564
0.000136834
0.000157347
0.000171013
0.000252255
0.000317936
0.000340986
0.000375405
0.000322608
0.000261773
0.000268829
0.000521168
0.00259532
0.0181647
0.196325
3.09795
68.239
1270.82
1.47502
0.0347837
0.00652926
0.00282087
0.00184
0.00161968
0.00324332
0.103476
3.07079
90.1588
191.087
49.0646
2.93862
0.0842575
0.00177688
0.000563893
0.000462484
0.000396845
0.000358116
0.000333231
0.000315481
0.000301342
0.000290223
0.000279108
0.000273392
0.000288104
0.000299358
0.000370434
0.000460662
0.000578338
0.000639825
0.000563548
0.000413996
0.00026348
0.000148171
8.99004e-05
5.78024e-05
4.07042e-05
3.38828e-05
2.98659e-05
2.34068e-05
2.12523e-05
1.76838e-05
1.37138e-05
1.29814e-05
1.2766e-05
1.1072e-05
1.30315e-05
6.41869e-05
0.000201817
0.000139475
0.000161064
0.000178558
0.000301795
0.000330521
0.000384177
0.000394337
0.000313907
0.000254994
0.000247976
0.000447259
0.00200249
0.0151016
0.166675
2.76461
64.4739
1306.05
2.51886
0.0494582
0.0067495
0.00235063
0.00170701
0.00157025
0.00193088
0.0294763
1.15281
37.8589
295.765
127.479
12.5346
0.607905
0.0113169
0.000845575
0.000492482
0.000423027
0.000378068
0.00034801
0.000323981
0.00031146
0.000300137
0.000294728
0.000298043
0.000301125
0.000359393
0.000470559
0.000763573
0.00112179
0.00149561
0.00157613
0.0012519
0.000795751
0.000431821
0.000211398
0.000105997
6.05139e-05
3.79147e-05
3.13822e-05
2.65927e-05
2.15543e-05
1.95979e-05
1.4837e-05
1.33055e-05
1.3304e-05
1.11717e-05
1.10794e-05
1.22127e-05
6.75219e-05
0.000210655
0.0001375
0.000165307
0.000197487
0.000322126
0.000361123
0.000428033
0.000404747
0.000313627
0.000249945
0.000233863
0.000396514
0.00163153
0.0123062
0.139161
2.44258
60.3137
1335.48
5.89555
0.0483816
0.00880011
0.00212243
0.00171975
0.00160208
0.00144488
0.00547288
0.569356
20.6176
341.384
201.643
52.5163
3.5994
0.0687891
0.00108862
0.000577031
0.000462612
0.000403908
0.000366959
0.000341427
0.000324138
0.000312109
0.00030338
0.000305312
0.000326345
0.000392506
0.000677921
0.00115099
0.00217889
0.00336659
0.00431491
0.00413222
0.00292183
0.00161004
0.000765085
0.000319941
0.00012987
5.83507e-05
3.55125e-05
2.86993e-05
2.33562e-05
2.05946e-05
1.73236e-05
1.34262e-05
1.3447e-05
1.30136e-05
1.02198e-05
1.07843e-05
1.09703e-05
6.47131e-05
0.000234045
0.000143593
0.000166928
0.000217163
0.000331923
0.000422572
0.000439307
0.000410636
0.000293146
0.000240868
0.000221424
0.00033367
0.00130194
0.00954511
0.116357
2.11609
55.6413
1355.85
14.3199
0.0661498
0.0140416
0.00222926
0.00173375
0.00170781
0.00133149
0.00409951
0.022886
9.85427
329.342
251.597
117.077
12.5175
0.531376
0.00635141
0.000657134
0.000499147
0.000425339
0.000377023
0.000349588
0.000332346
0.00032053
0.000313755
0.000319975
0.000339534
0.000455403
0.000794762
0.00195214
0.00365557
0.0070346
0.0105494
0.0124302
0.0106075
0.00663688
0.00319793
0.00136061
0.000488397
0.000164533
5.93907e-05
3.23663e-05
2.58985e-05
2.09705e-05
1.93133e-05
1.45318e-05
1.30998e-05
1.36515e-05
1.14706e-05
1.02271e-05
9.97784e-06
1.0524e-05
7.47793e-05
0.000228957
0.000152486
0.000169483
0.000248206
0.000361937
0.000434541
0.000450317
0.00041321
0.000306398
0.000241642
0.000217466
0.000279853
0.000961324
0.00738754
0.0933887
1.79819
50.6816
1362.8
31.1514
0.0724341
0.018653
0.00234303
0.00177188
0.00175686
0.0011509
0.00152838
0.0356967
2.97773
263.38
274.098
175.555
35.5143
2.08567
0.055574
0.000975316
0.00052642
0.000448047
0.000396973
0.00036274
0.000341836
0.000328663
0.000321089
0.000330639
0.000363501
0.000492402
0.00101106
0.00240198
0.00669773
0.0124307
0.0228723
0.0321349
0.0341597
0.0256427
0.0141148
0.0061085
0.00229972
0.000708363
0.000191961
5.52675e-05
2.83835e-05
2.31181e-05
2.00282e-05
1.74252e-05
1.30469e-05
1.32778e-05
1.31503e-05
1.04974e-05
9.78366e-06
9.07333e-06
1.04703e-05
8.91893e-05
0.000230238
0.000166142
0.000174133
0.000242294
0.000377252
0.000460307
0.000447893
0.000411282
0.000301263
0.000234606
0.000217015
0.000245693
0.00072627
0.00552441
0.0727928
1.4909
45.3599
1363.91
53.1189
0.115985
0.0181469
0.00275707
0.00186711
0.00194021
0.000915841
0.00136907
0.00956581
0.434224
110.964
285.288
222.713
90.0483
6.80499
0.167204
0.00212884
0.000609982
0.000476774
0.000408501
0.000374634
0.000347464
0.000335224
0.000333954
0.000345523
0.000370983
0.000518454
0.00114227
0.00324564
0.00844595
0.0236189
0.0417122
0.071525
0.0924303
0.0874148
0.057139
0.027506
0.0108478
0.0035527
0.000931746
0.000194596
4.31088e-05
2.45276e-05
2.12015e-05
1.91575e-05
1.49189e-05
1.27611e-05
1.37175e-05
1.18157e-05
1.03385e-05
8.82501e-06
8.37399e-06
1.04531e-05
6.9698e-05
0.000201883
0.000173141
0.000179331
0.000250196
0.000395577
0.000473478
0.000441205
0.000403746
0.000339075
0.000241095
0.000218614
0.000222137
0.000524537
0.00380463
0.0556291
1.20069
39.828
1359.23
73.7292
0.155731
0.0210602
0.00297468
0.0021175
0.00249057
0.000606385
0.000927779
0.00835414
0.179432
9.15602
289.31
256.113
152.393
20.7974
0.830404
0.00791456
0.000692715
0.000513517
0.000432782
0.000382865
0.000354064
0.000339232
0.000341372
0.000357375
0.000384945
0.000532543
0.00114427
0.00368205
0.0117377
0.0301282
0.080435
0.133084
0.20979
0.246316
0.204745
0.115479
0.0496174
0.0173079
0.00485396
0.00109061
0.000179809
2.73326e-05
2.28869e-05
1.99553e-05
1.76911e-05
1.30682e-05
1.28829e-05
1.3571e-05
1.05418e-05