/*--------------------------------*- C++ -*----------------------------------*\
| =========                 |                                                 |
| \\      /  F ield         | OpenFOAM: The Open Source CFD Toolbox           |
|  \\    /   O peration     | Version:  2212                                  |
|   \\  /    A nd           | Website:  www.openfoam.com                      |
|    \\/     M anipulation  |                                                 |
\*---------------------------------------------------------------------------*/
FoamFile
{
    version     2.0;
    format      ascii;
    arch        "LSB;label=32;scalar=64";
    class       volScalarField;
    location    "100";
    object      nut;
}
// * * * * * * * * * * * * * * * * * * * * * * * * * * * * * * * * * * * * * //

dimensions      [0 2 -1 0 0 0 0];

internalField   nonuniform List<scalar> 
165000
(
1.93285e-06
0.000797047
2.05382e-06
0.00637111
0.000751814
2.47699e-06
0.0305421
0.00600875
0.000719132
3.27788e-06
0.0256215
0.0315978
0.00552628
0.000678446
4.49244e-06
0.0124707
0.0232946
0.031649
0.00499068
0.000661191
7.10953e-06
0.00588546
0.0105269
0.0221613
0.0323429
0.00495458
0.000721785
1.103e-05
0.00273959
0.00476793
0.00977672
0.0205139
0.0329182
0.00522194
0.000839125
1.71125e-05
0.00118998
0.00214922
0.00436176
0.00849947
0.0192395
0.0344194
0.00589309
0.001043
3.75223e-05
0.00035931
0.000886769
0.00194355
0.003709
0.00787168
0.0181962
0.0360987
0.00739606
0.00217887
0.000108196
5.85856e-05
0.000246695
0.000790537
0.00163165
0.00341118
0.00697765
0.0171236
0.0389819
0.0186296
0.0048744
0.000471547
7.18561e-06
3.68353e-05
0.000213525
0.000650933
0.00149024
0.0029529
0.00654902
0.0163045
0.0397728
0.0280642
0.014858
0.00104179
8.11109e-07
4.05993e-06
3.10634e-05
0.000173837
0.000587191
0.00126403
0.00274576
0.00595902
0.0153369
0.0392136
0.0547119
0.0211558
0.00145406
2.07831e-07
4.97304e-07
3.53353e-06
2.56366e-05
0.000155517
0.000486412
0.00116079
0.00240937
0.00563861
0.0145149
0.0408021
0.0882775
0.0211143
0.00153755
1.76546e-07
1.79446e-07
4.32825e-07
3.77252e-06
2.29859e-05
0.00012661
0.000438859
0.000989031
0.00225045
0.00517228
0.0138361
0.0425672
0.0750194
0.0195738
0.00148388
2.40304e-07
1.73486e-07
1.72682e-07
4.06228e-07
3.78189e-06
1.93644e-05
0.00011355
0.00036358
0.000908575
0.00199736
0.00493357
0.0134321
0.0420482
0.0688031
0.017323
0.00137317
2.94951e-07
2.51443e-07
1.67903e-07
1.65158e-07
3.78077e-07
2.91708e-06
1.76409e-05
9.27013e-05
0.000327766
0.000776101
0.00188363
0.00456356
0.0130575
0.040621
0.0678805
0.0145395
0.00121663
2.9046e-07
2.88792e-07
2.55177e-07
1.64188e-07
1.6244e-07
3.43432e-07
2.33379e-06
1.52744e-05
8.30826e-05
0.000271441
0.000714306
0.00166258
0.00433253
0.0128022
0.0407365
0.0664141
0.0119499
0.00105911
2.68204e-07
2.81933e-07
2.87318e-07
2.55527e-07
1.61371e-07
1.56484e-07
3.05068e-07
1.88161e-06
1.34555e-05
6.75645e-05
0.000243084
0.000607917
0.00156294
0.00401139
0.0122999
0.0410254
0.0668791
0.00943613
0.000890366
2.06002e-07
2.5317e-07
2.77802e-07
2.76085e-07
2.50989e-07
1.58045e-07
1.54807e-07
2.71497e-07
1.66342e-06
1.12345e-05
6.02311e-05
0.000198722
0.000557007
0.00136747
0.00376585
0.0118133
0.0379499
0.0674339
0.00732422
0.000734743
1.65389e-07
1.84022e-07
2.2102e-07
2.61679e-07
2.70563e-07
2.46367e-07
1.55624e-07
1.50334e-07
2.54212e-07
1.66065e-06
1.00883e-05
4.89314e-05
0.000176784
0.000466747
0.00126563
0.00343291
0.0109114
0.0367342
0.0681328
0.00552266
0.000604496
1.52417e-07
1.55666e-07
1.65778e-07
1.97503e-07
2.47097e-07
2.63691e-07
2.48756e-07
1.50836e-07
1.47848e-07
2.49078e-07
1.65886e-06
8.80233e-06
4.31097e-05
0.000142781
0.000423059
0.00108575
0.00312856
0.0103234
0.0354049
0.0686405
0.00407659
0.000444879
1.47627e-07
1.47015e-07
1.47017e-07
1.56954e-07
1.71347e-07
2.28555e-07
2.58725e-07
2.42026e-07
1.49062e-07
1.44808e-07
2.39867e-07
1.53997e-06
8.19768e-06
3.50656e-05
0.000126388
0.000350293
0.000994754
0.00281839
0.00953551
0.0345251
0.0690954
0.00276609
0.000353857
1.47139e-07
1.44033e-07
1.40648e-07
1.38227e-07
1.45316e-07
1.58845e-07
2.12028e-07
2.51118e-07
2.39854e-07
1.45524e-07
1.42811e-07
2.37045e-07
1.34874e-06
7.34923e-06
3.11277e-05
0.000102547
0.00031425
0.000844477
0.00254619
0.00895051
0.0331732
0.0695882
0.00192328
0.000357666
1.49848e-07
1.44626e-07
1.38571e-07
1.35261e-07
1.33143e-07
1.38103e-07
1.48775e-07
1.97924e-07
2.44473e-07
2.34461e-07
1.40767e-07
1.38595e-07
2.28516e-07
1.55463e-06
6.69314e-06
2.54314e-05
9.06717e-05
0.000259629
0.000766127
0.00227738
0.00805819
0.0313269
0.0701116
0.0018353
0.000340776
1.52301e-07
1.4608e-07
1.42309e-07
1.3599e-07
1.3067e-07
1.26131e-07
1.32161e-07
1.42615e-07
1.90291e-07
2.37633e-07
2.28527e-07
1.39896e-07
1.33107e-07
2.27408e-07
1.28741e-06
5.73017e-06
2.27851e-05
7.44054e-05
0.000232489
0.000649803
0.00200909
0.00739901
0.0296667
0.0705686
0.00175483
0.000369907
1.58105e-07
1.49506e-07
1.44226e-07
1.37562e-07
1.31941e-07
1.25846e-07
1.22524e-07
1.24878e-07
1.3762e-07
1.83836e-07
2.28992e-07
2.24228e-07
1.33375e-07
1.26054e-07
2.12981e-07
1.03472e-06
5.20991e-06
1.87436e-05
6.61642e-05
0.000193355
0.000584297
0.00180658
0.00667277
0.0277609
0.0707597
0.0019975
0.000393836
1.70316e-07
1.54981e-07
1.48676e-07
1.40839e-07
1.35163e-07
1.28964e-07
1.23196e-07
1.17336e-07
1.21333e-07
1.32889e-07
1.78424e-07
2.22441e-07
2.17909e-07
1.30166e-07
1.18334e-07
1.86943e-07
8.82477e-07
4.05978e-06
1.6769e-05
5.50778e-05
0.000174266
0.000507188
0.00160262
0.00607968
0.0256437
0.0709494
0.00276125
0.000776158
1.91859e-07
1.71462e-07
1.55764e-07
1.44721e-07
1.39081e-07
1.30976e-07
1.26701e-07
1.19954e-07
1.14738e-07
1.16655e-07
1.29682e-07
1.72446e-07
2.1763e-07
2.19611e-07
1.24608e-07
1.11065e-07
1.65871e-07
6.92403e-07
3.35208e-06
1.36508e-05
4.93664e-05
0.000148247
0.000459095
0.00145839
0.00540966
0.0235766
0.071538
0.00743091
0.00241472
2.11078e-07
1.96356e-07
1.71972e-07
1.53942e-07
1.4338e-07
1.35207e-07
1.30043e-07
1.22313e-07
1.18189e-07
1.11482e-07
1.14966e-07
1.25862e-07
1.66869e-07
2.09806e-07
2.15714e-07
1.17704e-07
1.03371e-07
1.55008e-07
7.16038e-07
3.22949e-06
1.21961e-05
4.15379e-05
0.000136255
0.000409658
0.00128278
0.00489812
0.021461
0.0709255
0.0312513
0.0168284
2.18682e-07
2.11039e-07
1.99227e-07
1.72007e-07
1.54044e-07
1.39618e-07
1.32564e-07
1.26819e-07
1.21626e-07
1.15357e-07
1.0985e-07
1.11994e-07
1.22352e-07
1.60032e-07
2.01983e-07
2.06893e-07
1.15882e-07
9.72908e-08
1.5926e-07
6.29718e-07
3.09729e-06
1.01748e-05
3.76008e-05
0.000118245
0.000359639
0.00115881
0.0043167
0.0191008
0.0687373
0.0755711
0.0452204
2.2471e-07
2.16313e-07
2.09876e-07
1.97977e-07
1.72978e-07
1.50724e-07
1.36516e-07
1.29555e-07
1.24634e-07
1.18901e-07
1.12795e-07
1.08824e-07
1.11286e-07
1.19004e-07
1.531e-07
1.93994e-07
1.97949e-07
1.10853e-07
9.06464e-08
1.43374e-07
7.12589e-07
2.802e-06
9.16237e-06
3.16308e-05
0.000103662
0.000322792
0.00101219
0.00389047
0.0167911
0.0666079
0.129567
0.0681514
2.27377e-07
2.18459e-07
2.12629e-07
2.05664e-07
1.96773e-07
1.68823e-07
1.47936e-07
1.34e-07
1.28334e-07
1.2213e-07
1.15801e-07
1.13243e-07
1.08155e-07
1.09094e-07
1.15861e-07
1.44659e-07
1.87343e-07
1.95147e-07
1.05259e-07
8.66332e-08
1.52321e-07
5.86772e-07
2.75827e-06
7.76928e-06
2.77544e-05
9.11718e-05
0.000273891
0.000970875
0.00382889
0.0162022
0.0649158
0.188485
0.0833539
2.3483e-07
2.2359e-07
2.17006e-07
2.06234e-07
2.02343e-07
1.89933e-07
1.67884e-07
1.44922e-07
1.30114e-07
1.24178e-07
1.19992e-07
1.13877e-07
1.11759e-07
1.06793e-07
1.06916e-07
1.11816e-07
1.35707e-07
1.82023e-07
1.90457e-07
1.01054e-07
8.49352e-08
1.50222e-07
5.24003e-07
1.97308e-06
6.98212e-06
2.48118e-05
8.34735e-05
0.000264475
0.000899888
0.00339586
0.0136965
0.0613277
0.226771
0.0890895
2.66526e-07
2.30151e-07
2.19692e-07
2.10292e-07
2.04447e-07
1.96516e-07
1.83447e-07
1.60366e-07
1.41759e-07
1.28232e-07
1.21043e-07
1.16402e-07
1.12651e-07
1.10919e-07
1.05735e-07
1.04332e-07
1.08301e-07
1.2544e-07
1.72536e-07
1.85051e-07
9.82974e-08
8.48141e-08
1.44046e-07
4.48806e-07
1.73445e-06
5.90684e-06
2.51755e-05
8.8343e-05
0.000278991
0.000942563
0.00349222
0.0138804
0.0583152
0.212871
0.0922905
3.00367e-07
2.61308e-07
2.29915e-07
2.13875e-07
2.04711e-07
1.98201e-07
1.92568e-07
1.77043e-07
1.60302e-07
1.41854e-07
1.25151e-07
1.17057e-07
1.13845e-07
1.08989e-07
1.09021e-07
1.04534e-07
1.0226e-07
1.04572e-07
1.15809e-07
1.59147e-07
1.84108e-07
1.03953e-07
8.25221e-08
1.40924e-07
3.78815e-07
1.27218e-06
5.31635e-06
2.17114e-05
8.96673e-05
0.000252666
0.000834601
0.00316886
0.012477
0.0537609
0.187485
0.0947344
3.27429e-07
2.92461e-07
2.58146e-07
2.25864e-07
2.14764e-07
1.99422e-07
1.93242e-07
1.87135e-07
1.71999e-07
1.5661e-07
1.40255e-07
1.21715e-07
1.15245e-07
1.11836e-07
1.0643e-07
1.07413e-07
1.04053e-07
1.01026e-07
1.01165e-07
1.06793e-07
1.45895e-07
1.8609e-07
1.07376e-07
8.32344e-08
1.18475e-07
3.18289e-07
1.3152e-06
5.35105e-06
2.3902e-05
7.38251e-05
0.000282724
0.000873798
0.00347407
0.0113832
0.0484421
0.163699
0.097827
4.27009e-07
3.24435e-07
2.81598e-07
2.52628e-07
2.25251e-07
2.08435e-07
1.96715e-07
1.88767e-07
1.82708e-07
1.69722e-07
1.56885e-07
1.39371e-07
1.20482e-07
1.11656e-07
1.09504e-07
1.05705e-07
1.05809e-07
1.0379e-07
9.87037e-08
9.78121e-08
9.97997e-08
1.33936e-07
1.83406e-07
1.12811e-07
8.26097e-08
1.16953e-07
3.36453e-07
1.37038e-06
5.77495e-06
2.19027e-05
7.7569e-05
0.000254103
0.000872255
0.0029368
0.00964525
0.04343
0.150075
0.0965413
6.2613e-07
4.22959e-07
3.22254e-07
2.77981e-07
2.61945e-07
2.23843e-07
2.04166e-07
1.90145e-07
1.84352e-07
1.78084e-07
1.65277e-07
1.53932e-07
1.40128e-07
1.19127e-07
1.09183e-07
1.06465e-07
1.05105e-07
1.04451e-07
1.0324e-07
9.85791e-08
9.48875e-08
9.46283e-08
1.22151e-07
1.82557e-07
1.16995e-07
8.31826e-08
1.18771e-07
2.88611e-07
1.1584e-06
5.4036e-06
1.94014e-05
8.26156e-05
0.000285253
0.000871532
0.00247633
0.00871881
0.0388435
0.138542
0.102361
1.35965e-06
4.12421e-07
3.60204e-07
3.3589e-07
2.88725e-07
2.61927e-07
2.22413e-07
1.99037e-07
1.88788e-07
1.79817e-07
1.74591e-07
1.6036e-07
1.50337e-07
1.37855e-07
1.18491e-07
1.06672e-07
1.04989e-07
1.03633e-07
1.02981e-07
1.01559e-07
9.66907e-08
9.20802e-08
8.98573e-08
1.12451e-07
1.78746e-07
1.23936e-07
8.52205e-08
1.17028e-07
2.97742e-07
1.17944e-06
4.63032e-06
2.11478e-05
8.29269e-05
0.000239182
0.000704432
0.00218229
0.00745169
0.0348249
0.128583
0.105499
5.10883e-05
4.02019e-07
3.8073e-07
3.50882e-07
3.36062e-07
2.85451e-07
2.61242e-07
2.18553e-07
1.95835e-07
1.84975e-07
1.79488e-07
1.70981e-07
1.56744e-07
1.46104e-07
1.36697e-07
1.16862e-07
1.07042e-07
1.02991e-07
1.02572e-07
9.98701e-08
9.86438e-08
9.44712e-08
8.91759e-08
8.64935e-08
1.02543e-07
1.75351e-07
1.31995e-07
8.71705e-08
1.12864e-07
3.22677e-07
1.32453e-06
5.67641e-06
2.23864e-05
6.74191e-05
0.000226789
0.0006171
0.0016949
0.006194
0.0304746
0.12029
0.120417
0.000298479
3.99608e-05
3.88943e-07
3.58458e-07
3.56241e-07
3.28421e-07
2.82444e-07
2.61512e-07
2.16601e-07
1.95355e-07
1.83708e-07
1.76889e-07
1.67081e-07
1.53657e-07
1.43484e-07
1.33743e-07
1.17108e-07
1.06362e-07
1.02507e-07
1.00634e-07
9.70505e-08
9.7291e-08
9.2193e-08
8.6846e-08
8.38219e-08
9.46569e-08
1.69066e-07
1.38731e-07
8.90832e-08
1.19214e-07
3.33717e-07
1.36445e-06
5.95194e-06
2.06666e-05
7.20236e-05
0.000196988
0.000467624
0.00146019
0.00546783
0.0270196
0.112866
0.147783
0.00185163
0.000311847
3.97132e-07
3.69935e-07
3.68992e-07
3.47352e-07
3.18111e-07
2.8007e-07
2.60366e-07
2.15686e-07
1.93289e-07
1.82303e-07
1.74827e-07
1.64313e-07
1.51028e-07
1.40189e-07
1.32204e-07
1.15458e-07
1.04998e-07
1.01001e-07
9.80313e-08
9.58035e-08
9.46452e-08
9.02727e-08
8.44908e-08
8.13108e-08
8.76211e-08
1.61578e-07
1.49628e-07
9.23319e-08
1.21478e-07
3.00732e-07
1.14458e-06
4.93161e-06
1.84257e-05
6.87688e-05
0.000165662
0.000397955
0.0011332
0.00443265
0.023275
0.106549
0.193522
0.00392584
0.0010159
4.132e-07
3.94928e-07
3.92434e-07
3.67719e-07
3.38276e-07
3.03998e-07
2.74551e-07
2.55721e-07
2.19892e-07
1.94485e-07
1.81108e-07
1.72092e-07
1.59849e-07
1.47294e-07
1.37803e-07
1.29463e-07
1.15174e-07
1.03951e-07
9.90717e-08
9.5678e-08
9.41171e-08
9.19778e-08
8.81868e-08
8.20586e-08
7.88769e-08
8.27575e-08
1.55668e-07
1.58284e-07
9.51886e-08
1.20988e-07
3.21098e-07
1.34714e-06
5.19533e-06
1.97977e-05
4.23981e-05
0.000106319
0.000290378
0.000969976
0.00390247
0.0203214
0.101003
0.263899
0.00676136
0.00172659
4.14553e-06
4.05612e-07
4.24825e-07
4.09393e-07
3.67236e-07
3.22893e-07
2.89868e-07
2.66432e-07
2.54201e-07
2.25549e-07
1.96829e-07
1.81828e-07
1.70062e-07
1.55476e-07
1.44848e-07
1.34248e-07
1.25895e-07
1.13777e-07
1.02429e-07
9.70342e-08
9.35715e-08
9.22348e-08
9.05735e-08
8.64285e-08
8.03535e-08
7.61404e-08
7.94441e-08
1.48717e-07
1.73266e-07
9.9855e-08
1.28333e-07
3.62131e-07
1.40175e-06
5.30955e-06
1.18679e-05
3.27752e-05
8.23205e-05
0.000241188
0.000761386
0.003132
0.0174032
0.0960696
0.365533
0.011023
0.00346338
4.35821e-06
2.7865e-06
4.42794e-07
4.42589e-07
4.13518e-07
3.45793e-07
3.09892e-07
2.87225e-07
2.60321e-07
2.50071e-07
2.30933e-07
2.03113e-07
1.83392e-07
1.67023e-07
1.52245e-07
1.42956e-07
1.31498e-07
1.22621e-07
1.12208e-07
1.01486e-07
9.53522e-08
9.29197e-08
9.01983e-08
8.79425e-08
8.4191e-08
7.73472e-08
7.33466e-08
7.76739e-08
1.44067e-07
1.85091e-07
1.04439e-07
1.36684e-07
3.83833e-07
1.4771e-06
3.63686e-06
9.46812e-06
2.19075e-05
6.33221e-05
0.000172672
0.000631781
0.00271521
0.014994
0.092074
0.505132
0.0138349
0.00606165
0.000168467
2.26022e-06
4.42616e-07
4.51729e-07
4.52259e-07
4.0131e-07
3.28938e-07
3.02914e-07
2.79787e-07
2.57246e-07
2.49332e-07
2.3322e-07
2.13691e-07
1.86314e-07
1.65777e-07
1.49719e-07
1.39305e-07
1.29837e-07
1.21689e-07
1.10926e-07
1.00227e-07
9.31135e-08
9.04949e-08
8.79166e-08
8.60142e-08
8.19718e-08
7.49509e-08
7.03451e-08
7.50292e-08
1.38803e-07
2.01672e-07
1.11629e-07
1.44124e-07
4.17465e-07
1.00739e-06
2.87643e-06
5.7833e-06
1.67413e-05
4.31988e-05
0.000140287
0.000487728
0.00225898
0.0127447
0.0899288
0.688298
0.017504
0.00982172
0.000129658
2.44939e-05
4.54077e-07
4.60164e-07
4.68968e-07
4.38315e-07
3.91254e-07
3.30827e-07
3.01429e-07
2.74821e-07
2.55335e-07
2.46507e-07
2.36568e-07
2.22053e-07
1.919e-07
1.6326e-07
1.46123e-07
1.35772e-07
1.26978e-07
1.20289e-07
1.09497e-07
9.91632e-08
9.16488e-08
8.91805e-08
8.64399e-08
8.41002e-08
7.94506e-08
7.15727e-08
6.78792e-08
7.35852e-08
1.30012e-07
2.14327e-07
1.18399e-07
1.51891e-07
3.13784e-07
8.617e-07
1.6534e-06
4.33782e-06
1.12028e-05
3.37935e-05
0.000102316
0.00041792
0.00201091
0.0112747
0.0911832
0.918345
0.029005
0.0160719
0.00125573
2.97938e-05
5.13159e-07
4.68584e-07
4.85293e-07
4.68552e-07
4.29756e-07
3.90899e-07
3.29342e-07
2.97013e-07
2.72123e-07
2.51405e-07
2.4309e-07
2.34204e-07
2.24238e-07
1.9742e-07
1.62321e-07
1.43472e-07
1.32584e-07
1.24086e-07
1.18488e-07
1.07714e-07
9.80827e-08
9.04717e-08
8.69055e-08
8.50525e-08
8.11145e-08
7.46804e-08
6.80097e-08
6.53198e-08
6.85777e-08
1.12925e-07
2.26642e-07
1.26302e-07
1.51045e-07
2.87979e-07
5.12585e-07
1.21099e-06
2.97948e-06
8.16634e-06
2.31938e-05
8.4978e-05
0.000350648
0.00175691
0.010528
0.0876018
1.1993
0.0602657
0.0288011
0.00796608
0.000466185
5.94687e-06
4.84525e-07
4.96834e-07
4.95837e-07
4.6629e-07
4.29195e-07
3.8939e-07
3.26777e-07
2.89651e-07
2.6878e-07
2.48886e-07
2.40447e-07
2.32173e-07
2.2272e-07
1.99456e-07
1.60688e-07
1.42005e-07
1.29823e-07
1.22087e-07
1.16492e-07
1.06236e-07
9.65807e-08
8.81445e-08
8.51999e-08
8.24358e-08
7.59475e-08
6.89049e-08
6.3433e-08
6.14409e-08
6.25515e-08
9.0109e-08
2.36822e-07
1.34787e-07
1.61344e-07
2.1309e-07
3.96891e-07
8.55723e-07
2.01492e-06
5.42608e-06
1.85174e-05
6.71737e-05
0.00030334
0.0015965
0.00996824
0.0911376
1.54009
0.0741505
0.0546315
0.0271691
0.00404877
4.3568e-05
5.63053e-07
5.2101e-07
5.17391e-07
4.97437e-07
4.60129e-07
4.25412e-07
3.77062e-07
3.26917e-07
2.8748e-07
2.65095e-07
2.47597e-07
2.38189e-07
2.2844e-07
2.20296e-07
1.98171e-07
1.59967e-07
1.39034e-07
1.24443e-07
1.19563e-07
1.14979e-07
1.04349e-07
9.49532e-08
8.62691e-08
8.35951e-08
7.79464e-08
7.07443e-08
6.36725e-08
5.92739e-08
5.75116e-08
5.59278e-08
7.30002e-08
2.51539e-07
1.4154e-07
1.59031e-07
1.95475e-07
2.99091e-07
5.91486e-07
1.41719e-06
4.17651e-06
1.41065e-05
5.80748e-05
0.000261621
0.00144881
0.009536
0.0920994
1.95015
0.065281
0.0927463
0.0539602
0.0178035
0.000924281
1.89079e-05
5.81956e-07
5.28781e-07
5.29656e-07
4.92172e-07
4.56084e-07
4.17503e-07
3.52495e-07
3.07714e-07
2.80566e-07
2.60835e-07
2.46515e-07
2.37464e-07
2.26496e-07
2.1721e-07
1.97056e-07
1.5964e-07
1.36557e-07
1.22377e-07
1.18198e-07
1.13327e-07
1.02371e-07
9.33119e-08
8.44024e-08
7.95896e-08
7.22759e-08
6.57129e-08
5.91802e-08
5.50085e-08
5.14069e-08
4.89399e-08
6.09042e-08
2.76468e-07
1.43471e-07
1.57586e-07
1.88816e-07
2.72191e-07
5.17277e-07
1.12229e-06
3.23459e-06
1.19437e-05
4.81402e-05
0.000232337
0.00128688
0.0091101
0.0901018
2.42085
0.0500986
0.0720381
0.0884454
0.0476172
0.00786897
3.83078e-05
6.58203e-07
5.50896e-07
5.60074e-07
5.32028e-07
4.89682e-07
4.47525e-07
3.91816e-07
3.36408e-07
2.94297e-07
2.70221e-07
2.56684e-07
2.45693e-07
2.36562e-07
2.25815e-07
2.15496e-07
1.94262e-07
1.59221e-07
1.33204e-07
1.19495e-07
1.17369e-07
1.10621e-07
1.00258e-07
9.18481e-08
8.10482e-08
7.46571e-08
6.76382e-08
6.08238e-08
5.51355e-08
4.93241e-08
4.48723e-08
3.95493e-08
5.93074e-08
3.0551e-07
1.46677e-07
1.64934e-07
1.89651e-07
2.67057e-07
4.47723e-07
9.35054e-07
2.77459e-06
9.75242e-06
4.24986e-05
0.000195725
0.00117614
0.0087734
0.0936713
2.95557
0.0311087
0.0512834
0.0872103
0.09505
0.0332184
0.000579163
2.31466e-06
6.17473e-07
5.85947e-07
5.72253e-07
5.26768e-07
4.83815e-07
4.19845e-07
3.52452e-07
3.19099e-07
2.91768e-07
2.73663e-07
2.61392e-07
2.48641e-07
2.34947e-07
2.23774e-07
2.10775e-07
1.94645e-07
1.57203e-07
1.31532e-07
1.18121e-07
1.15717e-07
1.06843e-07
9.70744e-08
8.97939e-08
7.64543e-08
7.05942e-08
6.26533e-08
5.59596e-08
5.05979e-08
4.22525e-08
3.66447e-08
3.25796e-08
7.07e-08
3.3026e-07
1.5119e-07
1.70392e-07
1.91643e-07
2.44907e-07
4.17669e-07
9.47874e-07
2.33205e-06
8.57117e-06
3.49232e-05
0.000173075
0.00106314
0.00853665
0.096657
3.59868
0.0164088
0.0298261
0.0664363
0.0929312
0.075198
0.0149418
0.000423518
2.37334e-06
6.54246e-07
5.93865e-07
5.67172e-07
5.11835e-07
4.38046e-07
3.79525e-07
3.34342e-07
3.17264e-07
3.11816e-07
2.91967e-07
2.74475e-07
2.5069e-07
2.33946e-07
2.20903e-07
2.04493e-07
1.91237e-07
1.5681e-07
1.30351e-07
1.17587e-07
1.13369e-07
1.03237e-07
9.33795e-08
8.63195e-08
7.2017e-08
6.59336e-08
5.69071e-08
5.12352e-08
4.49592e-08
3.44376e-08
2.9338e-08
2.77635e-08
1.16065e-07
3.21893e-07
1.54724e-07
1.73778e-07
1.8772e-07
2.47979e-07
4.11743e-07
7.82411e-07
2.03854e-06
6.90725e-06
3.02877e-05
0.000150072
0.000967162
0.00826368
0.0960154
4.43063
0.00789406
0.0145468
0.0401119
0.0685647
0.0959738
0.0567398
0.00339455
5.19492e-06
7.3946e-07
6.36049e-07
5.92918e-07
5.48196e-07
4.7008e-07
3.98062e-07
3.6804e-07
3.38368e-07
3.37898e-07
3.4158e-07
3.2492e-07
2.93078e-07
2.58637e-07
2.32649e-07
2.15025e-07
1.98406e-07
1.84686e-07
1.55361e-07
1.27263e-07
1.16351e-07
1.10642e-07
9.86681e-08
8.96871e-08
8.21415e-08
6.70248e-08
5.99022e-08
5.13993e-08
4.59471e-08
3.93085e-08
2.82318e-08
2.28113e-08
2.84325e-08
1.55657e-07
2.54962e-07
1.63087e-07
1.79237e-07
1.97555e-07
2.45418e-07
4.08207e-07
7.57904e-07
1.69078e-06
5.99613e-06
2.58303e-05
0.000129418
0.000874348
0.00809098
0.103207
5.50761
0.00363452
0.00700777
0.0179295
0.0433399
0.0679617
0.0920495
0.0249581
0.00011076
1.76432e-06
7.11106e-07
6.31298e-07
5.80581e-07
5.07872e-07
4.27899e-07
3.90942e-07
3.80016e-07
3.73254e-07
3.61843e-07
3.49101e-07
3.30002e-07
3.05343e-07
2.70764e-07
2.32538e-07
2.08229e-07
1.91783e-07
1.77351e-07
1.54755e-07
1.2529e-07
1.14106e-07
1.05743e-07
9.38518e-08
8.60474e-08
7.72273e-08
6.13298e-08
5.34681e-08
4.66822e-08
4.08251e-08
3.37648e-08
2.29767e-08
2.02106e-08
3.64503e-08
2.38561e-07
1.67814e-07
1.68058e-07
1.90682e-07
2.19308e-07
2.66633e-07
3.99491e-07
6.70321e-07
1.50807e-06
5.04138e-06
2.14184e-05
0.000113414
0.000790885
0.00782656
0.102064
6.60696
0.00172544
0.00294106
0.0084663
0.0189967
0.0464277
0.0687523
0.0674201
0.00288331
1.04438e-05
1.10037e-06
7.18335e-07
6.09164e-07
5.40293e-07
4.66866e-07
4.17382e-07
4.0229e-07
4.06842e-07
3.90793e-07
3.65983e-07
3.48003e-07
3.29696e-07
3.06835e-07
2.79236e-07
2.34146e-07
2.0217e-07
1.85502e-07
1.72413e-07
1.52418e-07
1.23116e-07
1.09374e-07
1.00522e-07
8.89561e-08
8.16224e-08
7.13925e-08
5.55537e-08
4.78984e-08
4.19705e-08
3.5698e-08
2.8279e-08
1.96289e-08
2.00418e-08
6.2898e-08
2.18701e-07
1.77084e-07
1.84169e-07
2.13728e-07
2.50285e-07
3.03067e-07
3.78044e-07
6.22303e-07
1.27432e-06
4.1149e-06
1.85883e-05
9.56457e-05
0.000710882
0.00739097
0.104464
7.54815
0.000908636
0.00109472
0.00273743
0.00625684
0.0188644
0.0362557
0.072095
0.0306332
0.000123274
5.68728e-06
1.10947e-06
7.07445e-07
5.92116e-07
4.95038e-07
4.5916e-07
4.32528e-07
4.21842e-07
4.13722e-07
3.96308e-07
3.6901e-07
3.45888e-07
3.26684e-07
3.05801e-07
2.82391e-07
2.39548e-07
1.97555e-07
1.80083e-07
1.66301e-07
1.47091e-07
1.18973e-07
1.04966e-07
9.50319e-08
8.39839e-08
7.65878e-08
6.41315e-08
5.00721e-08
4.31956e-08
3.79818e-08
3.02657e-08
2.27075e-08
1.86339e-08
2.20686e-08
1.06516e-07
2.24532e-07
1.95274e-07
2.07267e-07
2.42216e-07
2.92897e-07
3.42506e-07
4.19938e-07
6.27321e-07
1.09569e-06
3.55092e-06
1.49589e-05
8.374e-05
0.000631897
0.00706505
0.10172
8.28484
0.000529322
0.000410619
0.000870053
0.00184599
0.00410209
0.0116687
0.0369913
0.068116
0.00256518
3.77348e-05
5.5086e-06
8.25758e-07
6.31802e-07
5.49016e-07
4.8762e-07
4.59854e-07
4.51151e-07
4.28489e-07
4.18472e-07
4.00044e-07
3.74743e-07
3.43535e-07
3.19711e-07
3.0322e-07
2.81929e-07
2.45226e-07
1.96469e-07
1.73885e-07
1.60428e-07
1.43159e-07
1.15583e-07
9.92635e-08
8.9406e-08
7.86864e-08
7.09039e-08
5.66043e-08
4.46124e-08
3.91617e-08
3.40737e-08
2.47327e-08
1.93868e-08
1.8391e-08
3.21803e-08
1.16818e-07
2.20647e-07
2.04779e-07
2.37245e-07
2.78115e-07
3.36391e-07
3.93947e-07
4.56151e-07
5.65321e-07
9.56106e-07
2.8015e-06
1.306e-05
7.02106e-05
0.000570015
0.00648896
0.0994412
8.83875
0.000368813
0.000168802
0.000267967
0.000487602
0.000721368
0.00183295
0.0120835
0.0598366
0.0263052
0.000371377
4.4539e-05
1.25169e-06
7.41565e-07
5.92893e-07
5.21354e-07
4.93646e-07
4.69798e-07
4.58742e-07
4.37239e-07
4.31227e-07
4.17561e-07
4.00143e-07
3.59302e-07
3.26325e-07
3.01358e-07
2.81821e-07
2.49969e-07
1.9607e-07
1.68914e-07
1.55662e-07
1.3728e-07
1.10474e-07
9.33692e-08
8.37559e-08
7.35688e-08
6.4835e-08
4.96573e-08
4.00994e-08
3.59482e-08
2.91024e-08
2.04169e-08
1.84193e-08
1.88797e-08
5.74552e-08
1.36062e-07
2.16161e-07
2.19813e-07
2.73278e-07
3.20436e-07
3.81279e-07
4.50751e-07
5.02693e-07
5.78395e-07
8.07318e-07
2.41667e-06
1.05045e-05
6.19756e-05
0.000496367
0.00606421
0.0953891
9.24947
0.000284814
7.43183e-05
8.52422e-05
0.000121395
0.000131002
0.000277269
0.00253838
0.0265676
0.0666049
0.00403642
0.000173155
6.89688e-06
9.96466e-07
6.27782e-07
5.73748e-07
5.24585e-07
4.97885e-07
4.75279e-07
4.71928e-07
4.602e-07
4.46707e-07
4.18663e-07
4.0548e-07
3.66794e-07
3.28141e-07
3.01144e-07
2.82125e-07
2.54313e-07
2.03624e-07
1.66435e-07
1.49045e-07
1.30813e-07
1.04456e-07
8.65792e-08
7.85665e-08
6.80522e-08
5.85143e-08
4.33551e-08
3.70102e-08
3.24468e-08
2.33995e-08
1.87452e-08
1.78402e-08
2.15446e-08
1.02772e-07
1.49018e-07
2.17404e-07
2.45275e-07
3.11524e-07
3.86924e-07
4.4535e-07
4.98417e-07
5.49809e-07
5.47497e-07
7.17445e-07
1.91719e-06
9.17931e-06
5.10648e-05
0.00044489
0.00545511
0.0948134
9.55183
0.000282898
4.44595e-05
3.09276e-05
3.05349e-05
2.47045e-05
4.40646e-05
0.000561435
0.00818493
0.0518226
0.0234222
0.000842504
5.49126e-05
1.47632e-06
8.21644e-07
6.12778e-07
5.46595e-07
5.25796e-07
5.06929e-07
4.89755e-07
4.80876e-07
4.63874e-07
4.46398e-07
4.17711e-07
4.03473e-07
3.71027e-07
3.35396e-07
3.01808e-07
2.84081e-07
2.60991e-07
2.08614e-07
1.66963e-07
1.45465e-07
1.24546e-07
9.79049e-08
8.10487e-08
7.24174e-08
6.33065e-08
5.16282e-08
3.80559e-08
3.37934e-08
2.84106e-08
1.96578e-08
1.82689e-08
1.71268e-08
2.87349e-08
1.37836e-07
1.49453e-07
2.19541e-07
2.59574e-07
3.69388e-07
4.1666e-07
4.96849e-07
5.61906e-07
5.72202e-07
5.5328e-07
6.45618e-07
1.65508e-06
7.23013e-06
4.49863e-05
0.000380368
0.00501562
0.0803436
9.77218
0.000468106
2.67321e-05
1.43425e-05
9.4139e-06
5.89664e-06
9.99756e-06
0.000128482
0.00217463
0.0276761
0.0526972
0.00770283
0.00036686
8.29264e-06
9.80507e-07
6.63247e-07
6.09389e-07
5.56651e-07
5.27394e-07
5.16871e-07
5.03668e-07
4.83112e-07
4.62652e-07
4.45621e-07
4.15495e-07
3.94115e-07
3.74874e-07
3.42708e-07
3.15511e-07
2.96885e-07
2.69119e-07
2.24286e-07
1.69274e-07
1.44805e-07
1.16709e-07
9.176e-08
7.49701e-08
6.76497e-08
5.82895e-08
4.4707e-08
3.51594e-08
3.11054e-08
2.37656e-08
1.84952e-08
1.74817e-08
1.60722e-08
4.18896e-08
1.40086e-07
1.52093e-07
2.51193e-07
2.92988e-07
4.06231e-07
4.72608e-07
5.55917e-07
6.19264e-07
6.12293e-07
5.2423e-07
5.81372e-07
1.30968e-06
6.23599e-06
3.61174e-05
0.000334701
0.00439401
0.0781106
9.9219
0.000478069
3.15867e-05
8.30972e-06
3.96755e-06
2.12486e-06
2.2152e-06
2.94073e-05
0.000758761
0.011148
0.084725
0.0382567
0.00224787
0.000107563
2.57452e-06
8.78264e-07
6.39508e-07
5.84414e-07
5.56861e-07
5.36816e-07
5.23266e-07
5.06966e-07
4.84705e-07
4.60047e-07
4.43048e-07
4.12345e-07
4.02184e-07
3.90819e-07
3.77049e-07
3.65587e-07
3.50655e-07
3.06352e-07
2.5069e-07
1.80931e-07
1.49667e-07
1.11311e-07
8.48484e-08
7.05961e-08
6.22246e-08
5.30115e-08
3.78454e-08
3.26062e-08
2.7284e-08
2.0025e-08
1.80068e-08
1.65103e-08
1.48905e-08
5.55424e-08
1.70459e-07
1.66719e-07
2.61155e-07
3.24701e-07
4.35654e-07
5.65831e-07
6.1542e-07
6.82105e-07
6.15464e-07
5.09399e-07
5.17526e-07
1.13385e-06
4.76974e-06
3.10963e-05
0.000283242
0.0039482
0.0727239
10.003
0.00086953
2.83624e-05
6.56351e-06
2.31835e-06
1.28606e-06
1.08748e-06
6.80066e-06
0.000157517
0.00521777
0.0654923
0.0796948
0.0101331
0.000797974
1.82689e-05
1.0786e-06
7.14845e-07
6.30646e-07
5.9476e-07
5.63187e-07
5.42336e-07
5.22618e-07
5.05596e-07
4.84817e-07
4.56925e-07
4.54247e-07
4.38193e-07
4.53377e-07
4.66814e-07
5.03625e-07
5.37735e-07
5.17754e-07
4.21566e-07
3.16142e-07
2.10995e-07
1.58166e-07
1.06127e-07
7.9119e-08
6.56374e-08
5.77583e-08
4.58898e-08
3.40206e-08
2.97207e-08
2.36765e-08
1.89546e-08
1.72398e-08
1.47916e-08
1.45578e-08
6.54311e-08
1.8669e-07
1.71145e-07
2.67882e-07
3.38006e-07
5.07515e-07
6.25192e-07
6.65815e-07
7.2384e-07
6.15287e-07
4.85831e-07
4.81432e-07
8.77968e-07
4.02409e-06
2.49864e-05
0.000242119
0.00346201
0.067865
10.0112
0.00150256
3.03467e-05
5.02692e-06
1.7816e-06
1.11903e-06
1.04493e-06
1.78639e-06
5.61785e-05
0.00172843
0.0332065
0.117557
0.0408945
0.00316753
0.000102783
2.34046e-06
7.85144e-07
6.80347e-07
6.20354e-07
5.86544e-07
5.635e-07
5.40926e-07
5.20387e-07
5.01828e-07
4.83684e-07
4.71095e-07
4.88482e-07
5.03592e-07
6.19135e-07
7.68662e-07
9.56937e-07
1.07645e-06
9.70992e-07
7.1652e-07
4.64772e-07
2.73487e-07
1.66931e-07
1.05396e-07
7.44161e-08
6.16542e-08
5.24143e-08
3.91714e-08
3.19977e-08
2.64329e-08
2.0456e-08
1.82977e-08
1.59274e-08
1.33199e-08
1.42594e-08
5.47829e-08
1.9456e-07
1.84703e-07
2.6982e-07
3.50874e-07
5.72703e-07
6.59548e-07
7.40371e-07
7.47776e-07
5.86322e-07
4.64664e-07
4.3725e-07
7.40662e-07
3.06381e-06
2.05908e-05
0.000202551
0.00301823
0.0627552
9.93769
0.00251004
4.45546e-05
5.0168e-06
1.50616e-06
1.1207e-06
1.12309e-06
1.11503e-06
1.606e-05
0.000657986
0.0178338
0.152903
0.0977458
0.011358
0.000703466
1.43126e-05
1.1419e-06
7.03858e-07
6.47517e-07
6.09627e-07
5.79426e-07
5.5088e-07
5.31365e-07
5.1559e-07
5.05426e-07
5.02083e-07
5.06312e-07
6.01187e-07
7.78566e-07
1.2428e-06
1.82441e-06
2.42399e-06
2.63072e-06
2.17189e-06
1.39638e-06
7.72828e-07
3.94468e-07
2.00265e-07
1.11807e-07
6.97853e-08
5.70021e-08
4.69753e-08
3.46864e-08
2.9509e-08
2.22705e-08
1.94373e-08
1.74153e-08
1.39442e-08
1.29199e-08
1.34366e-08
5.84382e-08
2.16206e-07
1.87705e-07
2.70811e-07
3.76732e-07
6.13222e-07
7.1205e-07
8.11333e-07
7.54926e-07
5.76825e-07
4.47623e-07
4.05288e-07
6.4549e-07
2.46971e-06
1.66695e-05
0.000167213
0.00261411
0.0575535
9.75595
0.00548244
4.47102e-05
6.72984e-06
1.394e-06
1.19241e-06
1.22729e-06
8.79045e-07
3.13608e-06
0.00032399
0.0109757
0.162085
0.142269
0.0421691
0.00376054
8.22794e-05
1.41396e-06
7.99383e-07
6.9085e-07
6.43098e-07
6.06175e-07
5.74572e-07
5.49883e-07
5.30733e-07
5.15924e-07
5.10215e-07
5.3656e-07
6.48019e-07
1.10511e-06
1.83731e-06
3.41355e-06
5.33016e-06
6.88378e-06
6.88541e-06
5.0964e-06
2.89019e-06
1.39746e-06
6.06684e-07
2.49492e-07
1.08926e-07
6.57516e-08
5.20949e-08
4.09193e-08
3.17341e-08
2.60926e-08
2.01426e-08
1.87015e-08
1.62634e-08
1.26088e-08
1.26052e-08
1.21069e-08
5.64852e-08
2.43082e-07
2.05565e-07
2.69345e-07
4.01667e-07
6.39226e-07
8.12165e-07
8.2147e-07
7.57698e-07
5.33247e-07
4.23848e-07
3.76805e-07
5.3452e-07
1.95574e-06
1.28832e-05
0.000138514
0.00222396
0.052132
9.44208
0.011788
6.25249e-05
1.08998e-05
1.51228e-06
1.26104e-06
1.4015e-06
8.55341e-07
2.43508e-06
1.33519e-05
0.0054213
0.143959
0.156276
0.0861665
0.0113066
0.000595275
7.97836e-06
8.85373e-07
7.2691e-07
6.60456e-07
6.15273e-07
5.859e-07
5.61865e-07
5.43267e-07
5.27482e-07
5.25456e-07
5.52206e-07
7.2982e-07
1.25589e-06
3.04198e-06
5.58747e-06
1.05954e-05
1.62957e-05
1.96868e-05
1.77029e-05
1.17405e-05
5.88071e-06
2.54615e-06
9.42253e-07
3.2096e-07
1.11705e-07
6.01567e-08
4.69499e-08
3.56788e-08
2.94527e-08
2.20535e-08
1.9199e-08
1.78517e-08
1.43688e-08
1.21211e-08
1.1718e-08
1.13668e-08
6.52015e-08
2.28929e-07
2.09274e-07
2.84389e-07
4.49799e-07
6.87229e-07
8.29779e-07
8.36375e-07
7.50599e-07
5.45619e-07
4.18435e-07
3.6381e-07
4.46195e-07
1.44257e-06
9.95557e-06
0.000110394
0.00186266
0.0467121
8.97673
0.0220358
6.95697e-05
1.47501e-05
1.65033e-06
1.32869e-06
1.48225e-06
8.01517e-07
9.37222e-07
2.146e-05
0.00173789
0.0979257
0.145396
0.119839
0.0282032
0.0021455
6.61036e-05
1.27362e-06
7.43679e-07
6.84629e-07
6.41249e-07
6.0328e-07
5.7758e-07
5.55978e-07
5.36468e-07
5.37756e-07
5.76794e-07
7.77105e-07