/*--------------------------------*- C++ -*----------------------------------*\
| =========                 |                                                 |
| \\      /  F ield         | OpenFOAM: The Open Source CFD Toolbox           |
|  \\    /   O peration     | Version:  2212                                  |
|   \\  /    A nd           | Website:  www.openfoam.com                      |
|    \\/     M anipulation  |                                                 |
\*---------------------------------------------------------------------------*/
FoamFile
{
    version     2.0;
    format      ascii;
    arch        "LSB;label=32;scalar=64";
    class       volScalarField;
    location    "100";
    object      omega;
}
// * * * * * * * * * * * * * * * * * * * * * * * * * * * * * * * * * * * * * //

dimensions      [0 0 -1 0 0 0 0];

internalField   nonuniform List<scalar> 
165000
(
1249.9
1252.09
1136.78
971.201
1138.08
966.441
425.697
887.625
963.241
835.867
361.046
434.011
767.622
829.542
732.941
343.846
371.486
439.465
677.999
724.976
652.021
334.671
356.592
378.861
448.388
596.242
654.123
587.264
314.185
345.257
362.345
387.599
455.538
573.339
583.516
534.106
286.806
318.74
349.825
373.019
393.871
464.791
561.129
537.453
491.58
301.684
288.114
320.707
357.478
377.822
401.1
467.869
556.8
526.347
456.991
337.92
300.501
287.752
323.159
360.365
383.182
404.862
463.939
598.019
511.51
430.898
335.731
337.598
299.129
288.458
322.989
362.628
384.353
408.318
461.465
602.679
486.663
409.462
347.349
336.815
335.696
298.989
287.475
322.504
362.372
384.903
408.644
457.386
545.789
452.092
390.707
382.977
350.211
336.746
334.338
296.651
286.713
321.073
362.607
385.508
408.17
454.426
575.799
417.721
373.564
384.199
389.145
349.842
336.138
332.547
295.433
286.145
320.456
362.041
385.172
409.133
455.825
490.563
388.272
356.971
380.716
389.05
391.197
349.976
335.906
330.238
293.201
285.598
319.51
360.041
384.497
408.919
455.723
499.603
366.586
341.068
384.666
387.301
390.8
393.211
352.195
334.888
327.724
291.705
285.296
318.825
356.986
384.093
411.282
460.566
513.74
348.872
325.046
397.029
394.665
390.256
394.145
391.52
349.705
334.151
324.757
289.91
284.417
317.543
356.227
384.503
410.889
464.542
521.126
334.508
309.458
397.315
406.367
400.42
396.824
397.14
394.382
349.527
332.722
322.316
288.58
285.561
316.849
353.381
382.398
412.039
468.422
528.556
327.107
293.889
386.157
404.072
410.281
412.238
401.176
401.369
391.068
349.4
332.187
317.972
287.457
286.138
315.922
351.093
378.786
411.845
471.828
535.088
318.171
280.859
364.806
388.257
406.709
418.111
419.461
408.955
404.633
390.665
348.79
330.871
315.438
285.547
287.622
315.757
349.514
377.766
413.799
475.454
541.618
315.257
266.876
349.627
365.045
389.197
411.481
422.219
430.246
415.377
409.196
389.542
348.606
329.683
311.144
287.107
288.53
315.706
349.473
378.612
414.876
477.759
547.361
313.085
254.147
341.286
353.177
368.004
391.236
413.798
430.451
437.444
423.851
412.716
388.674
347.925
328.214
308.746
286.767
290.096
316.546
349.381
379.665
417.662
480.599
552.677
314.751
245.502
338.315
347.294
355.128
370.911
392.21
418.233
435.553
447.19
430.96
417.223
388.744
346.688
326.632
304.515
288.225
291.476
318.759
351.626
384.095
420.728
482.8
556.993
314.65
234.545
337.807
345.614
350.274
359.86
372.768
394.379
420.568
444.833
455.203
438.989
420.647
386.461
346.179
326.497
300.973
291.308
294.702
322.378
355.072
388.105
423.518
486.195
560.864
316.716
222.834
336.282
345.091
349.028
357.166
363.771
376.9
397.383
425.828
451.652
466.334
446.095
424.692
387.726
348.577
324.494
301.85
292.833
297.719
326.156
359.579
393.414
427.772
489.757
565.01
319.967
219.984
331.348
342.718
348.393
356.408
361.875
369.816
381.842
402.332
430.524
463.053
477.254
455.023
428.087
386.1
348.005
324.705
299.724
295.127
301.723
331.387
364.392
398.042
430.119
494.427
569.28
333.986
218.924
329.491
337.311
345.499
355.246
360.684
369.264
375.754
386.838
407.158
438.782
472.937
490.568
464.984
431.755
386.751
354.962
323.106
302.495
297.049
305.493
335.726
368.278
401.809
434.349
499.394
574.847
357.39
218.678
326.097
335.572
340.067
351.077
358.781
368.347
375.475
382.787
393.344
413.042
445.778
486.698
503.849
477.573
435.211
385.402
358.016
323.74
303.972
299.869
309.629
338.948
370.086
403.114
436.852
504.715
579.309
390.835
220.141
325.735
333.832
338.587
346.274
354.124
365.482
373.461
383.272
389.931
399.608
419.264
455.558
498.606
519.074
492.45
439.047
386.668
365.457
322.688
307.138
302.332
312.392
339.52
370.439
403.623
439.46
509.346
584.089
434.501
224.357
326.308
333.959
337.987
345.688
350.69
360.52
368.889
381.052
390.646
397.869
407.087
426.454
463.703
513.171
534.117
510.872
442.844
388.193
367.688
324.585
309.231
304.777
314.862
339.428
370.287
403.986
441.713
513.826
587.094
470.742
222.077
327.948
334.857
338.226
346.594
350.972
358.039
364.974
375.402
386.813
399.227
406.163
414.628
433.996
473.797
525.353
550.485
532.289
447.597
396.628
369.944
327.163
310.97
307.335
316.447
339.48
369.548
404.225
443.683
516.939
591.537
464.493
210.095
330.518
336.838
339.158
347.702
353.378
358.894
363.322
372.762
379.849
394.131
407.697
415.015
423.149
442.395
481.677
538.574
566.333
557.059
454.457
399.645
371.35
328.443
313.221
310.043
318.399
338.983
368.244
404.383
445.795
520.39
596.856
403.445
198.456
337.962
339.844
340.803
348.665
354.654
365.223
365.657
371.667
378.566
387.349
400.463
417.063
424.359
431.625
451.146
490.55
548.847
582.976
583.412
463.5
406.872
373.841
330.928
315.186
313.223
320.701
339.902
368.022
404.5
447.611
523.103
605.647
399.926
198.419
352.734
349.196
343.813
349.543
355.413
366
376.895
375.873
378.494
387.216
393.919
408.165
426.39
434.549
441.533
460.543
497.642
558.69
598.666
611.435
475.233
410.287
375.021
331.958
318.017
317.167
324.024
340.715
368.191
404.775
449.404
526.099
617.231
560.255
199.027
356.579
360.736
353.616
352.513
355.837
366.294
376.063
390.849
385.181
387.749
393.898
402.537
415.636
436.316
445.239
451.624
470.495
505.345
565.535
614.786
639.222
486.195
416.299
377.671
334.258
321.339
321.696
328.247
343.325
369.549
405.228
451.233
528.405
630.647
687.4
198.842
364.71
363.133
363.408
363.015
358.578
366.59
375.152
388.699
402.431
397.536
396.133
402.928
410.359
424.428
446.078
456.028
463.24
480.698
512.922
571.358
629.949
667.098
498.811
419.573
379.266
336.999
325.67
327.085
333.701
347.547
372.882
406.221
452.668
530.322
641.745
729.64
198.507
371.361
371.347
365.293
368.069
369.072
369.764
374.757
386.337
399.662
415.593
409.344
407.332
411.444
419.943
433.082
456.501
467.483
474.987
492.046
521.289
576.271
644.981
693.73
509.626
425.589
383.041
341.135
330.563
333.084
339.955
352.704
376.828
408.622
454.43
531.992
649.673
749.303
206.432
370.014
373.504
373.306
369.324
372.359
379.659
378.177
386.203
395.286
411.741
426.012
422.41
417.971
422.015
429.329
443.029
466.748
479.129
488.304
503.458
530.766
582.237
658.52
721.268
522.736
430.502
386.256
345.436
336.382
339.463
346.393
358.206
380.867
411.767
456.48
535.31
657.478
764.254
202.325
371.076
373.776
375.147
377.294
374.209
380.436
385.798
390.124
395.361
407.157
422.465
438.148
434.371
430.856
432.223
440.322
452.874
477.393
491.562
501.454
516.48
540.775
590.833
672.899
748.54
534.078
437.168
390.606
351.024
342.328
346.208
352.985
363.588
384.987
414.562
459.14
538.055
665.118
774.624
206.632
378.536
376.28
375.743
381.906
383.247
383.139
387.713
394.101
398.662
407.139
416.844
434.657
448.051
447.199
443.285
444.275
450.814
463.845
487.961
504.57
515.736
529.432
552.816
601.256
689.796
777.803
548.498
443.989
395.399
356.438
349.051
352.863
359.648
369.165
388.927
417.585
462.221
540.445
672.132
782.63
200.801
401.98
384.675
379.148
386.406
390.881
396.542
393.327
397.857
401.704
409.07
417.213
428.845
444.238
458.262
458.36
457.555
455.698
462.631
474.751
499.167
518.327
529.715
543.341
565.466
613.606
708.411
809.691
565.683
452.946
399.958
363.175
355.386
359.653
366.364
375.041
392.557
420.845
465.396
543.277
679.166
788.632
195.501
411.969
404.348
389.138
394.652
396.896
406.126
411.433
406.913
409.724
412.186
417.868
428.812
439.029
454.612
466.842
470.436
470.504
468.582
473.791
486.457
510.698
532.579
543.845
557.369
579.787
627.185
728.257
845.19
590.456
461.796
405.288
369.243
362.418
366.569
373.395
381.347
396.619
424.247
468.884
546.091
685.492
793.733
189.381
411.858
413.971
410.727
414.049
407.693
413.825
420.82
428.608
423.565
425.357
423.941
430.131
438.804
451.877
464.339
475.953
481.657
484.752
480.573
485.947
497.994
522.993
546.683
558.167
571.54
595.444
643.659
746.713
883.592
623.302
474.003
409.503
376.852
369.366
373.815
380.823
389.025
402.119
427.976
472.22
549.671
691.761
797.709
182.494
412.727
414.202
415.227
428.655
430.616
431.286
432.784
441
449.542
443.023
443.585
441.106
441.862
451.792
463.156
474.797
483.081
493.324
497.632
493.255
497.561
510.179
535.413
561.075
572.257
586.666
612.652
662.608
763.474
920.939
671.473
487.012
416.182
383.775
377.113
381.542
389
397.75
409.582
433.022
476.625
553.065
697.266
801.125
175.028
426.869
422.621
418.225
432.447
440.281
458.68
462.321
457.669
460.011
464.761
459.807
462.58
461.006
457.3
463.282
474.582
483.883
491.536
503.902
510.96
504.667
509.69
522.107
548.713
573.929
586.76
601.539
632.64
683.261
773.793
945.419
731.544
503.226
422.03
392.245
385.324
390.121
397.906
407.911
418.85
439.376
481.415
555.926
702.098
803.487
167.047
442.763
433.364
432.661
448.157
451.645
468.196
480.212
489.502
481.342
474.619
474.555
471.882
474.951
479.052
473.707
475.815
484.836
493.64
499.189
515.058
522.185
516.541
521.501
534.509
561.42
586.738
600.108
618.102
654.188
706.388
775.31
955.204
802.118
519.845
431.184
400.584
394.298
399.288
407.742
418.444
429.789
447.407
486.76
559.53
705.967
805.413
158.597
457.956
442.637
441.195
461.43
469.591
476.514
484.465
502.082
501.799
492.516
482.469
480.751
479.839
487.227
495.489
494.837
489.483
495.929
501.744
507.235
524.97
533.573
527.151
533.363
546.471
574.564
597.009
614.401
635.301
678.413
726.431
773.724
955.038
870.544
538.108
439.241
409.553
403.363
408.662
417.285
429.623
440.361
456.573
493.002
562.772
708.886
806.396
149.736
475.569
455.065
434.326
456.386
467.101
479.112
490.07
507.546
511.228
505.757
497.449
488.622
486.399
490.37
498.219
508.666
513.086
504.93
505.49
509.938
514.666
535.71
542.691
538.273
545.122
558.566
586.234
607.726
628.212
656.474
701.173
736.473
774.657
952.131
930.526
551.754
449.711
417.556
411.858
417.296
426.657
440.579
451.445
466.926
500.727
567.771
710.967
807.262
140.459
510.574
480.513
454.249
446.384
462.017
481.453
499.962
514.266
516.453
515.253
506.581
500.193
494.927
494.442
498.339
503.544
514.831
526.762
520.595
515.49
517.977
522.17
544.469
552.072
548.276
556.487
569.788
597.026
616.924
645.449
680.182
721.504
741.956
779.38
953.345
970.427
555.421
458.538
424.564
419.371
424.763
436.002
449.773
462.659
478.331
510.068
573.413
712.445
807.679
130.842
627.957
525.44
470.513
448.524
466.554
487.089
509.208
524.415
526.368
524.204
517.497
507.199
501.75
499.623
500.677
503.445
508.255
523.079
535.512
536.902
525.615
525.168
528.823
552.65
559.777
558.992
567.478
580.541
605.664
627.001
663.575
707.189
726.358
741.702
772.74
949.393
986.72
553.568
467.809
430.661
425.669
430.332
444.263
458.267
473.929
489.787
521.015
581.411
713.688
808.417
121.347
757.231
626.667
519.039
476.301
477.672
498.904
522.34
540.316
544.365
539.887
528.401
518
507.394
503.166
502.677
504.411
508.028
512.892
527.491
543.443
548.925
535.57
531.716
535.545
558.164
567.408
568.57
577.642
589.66
612.474
637.477
684.976
725.987
726.702
741.402
768.496
948.295
982.817
550.684
470.909
435.878
430.519
434.625
450.105
466.252
484.695
501.906
533.319
590.027
714.855
809.248
113.453
830.111
869.25
649.525
513.196
497.905
524.892
542.655
561.217
569.599
560.163
543.11
529.886
518.154
511.766
507.195
506.528
508.525
512.614
516.52
529.544
548.087
557.881
546.012
537.146
541.196
560.588
574.442
578.301
586.802
597.371
617.876
652.044
706.758
729.464
724.588
736.848
753.693
983.129
960.236
547.534
471.533
439.72
432.109
436.781
453.099
471.244
493.423
513.974
546.595
599.38
715.724
810.714
107.499
820.725
978.992
910.489
616.836
572.876
573.509
583.231
584.303
593.167
581.109
562.221
543.029
531.433
517.773
514.763
513.971
511.471
513.796
516.55
521.29
531.064
551.013
563.099
555.478
541.97
546.421
562.438
581.016
587.137
594.441
602.515
623.262
671.518
719.543
726.33
718.916
712.252
726.953
1068.96
842.999
545.75
472.012
442.517
433.612
437.959
454.577
473.162
500.485
525.702
560.061
609.216
716.664
813.528
103.208
812.833
961.118
1122.66
974.926
694.885
617.424
609.724
609.718
611.254
601.638
580.547
562.792
540.811
530.818
520.984
519.481
520.84
519.734
519.058
521.602
524.219
530.808
551.11
566.739
562.857
546.402
547.943
561.601
587.809
594.558
600.149
606.006
631.075
695.652
720.288
723.475
699.476
673.336
715.506
1256.09
676.376
559.671
467.209
444.642
434.638
439.209
455.629
474.417
506.544
536.779
574.026
620.902
716.914
817.933
101.005
811.78
929.329
1117.83
1305.45
1000.91
753.07
639.286
641.176
628.623
619.958
601.537
577.77
558.626
540.199
534.41
530.578
533.735
538.691
533.114
528.655
527.145
529.996
532.828
548.852
568.884
569.136
550.506
550.532
561.446
593.599
600.319
602.587
609.674
643.046
711.17
720.508
712.171
664.598
641.634
773.728
1278.31
600.53
559.634
463.097
446.894
437.381
442.865
458.151
477.618
510.984
548.119
588.549
634.466
717.25
824.369
100.87
819.818
927.819
1033.41
1340.37
1495.56
1011.24
727.183
662.997
661.297
638.839
622.197
596.774
577.367
555.02
543.424
550.094
553.449
550.282
549.641
548.601
543.152
537.157
534.77
536.987
547.974
570.63
573.245
554.974
551.559
564.809
599.385
601.525
604.015
614.173
663.316
712.662
714.036
693.351
637.986
639.117
950.532
1172.59
558.979
553.297
458.881
449.532
441.726
448.677
462.893
482.737
515.958
559.723
603.86
648.89
721.711
832.806
101.841
846.56
928.813
1003.05
1209.98
1545.39
1554.3
1011.61
713.868
705.02
673.035
640.871
622.325
591.732
571.122
559.372
560.583
563.946
559.967
554.448
552.012
553.015
553.138
550.455
542.427
541.078
546.387
571.275
575.772
558.676
554.982
566.398
601.128
601.657
605.04
621.739
685.985
713.406
701.804
673.828
630.821
668.886
1311.51
964.163
561.866
545.003
457.162
451.714
448.15
456.05
469.243
488.463
521.221
571.932
620.329
665.698
729.893
843.748
103.764
896.226
944.847
1013.07
1168.99
1362.7
1749.3
1519.52
950.594
761.247
730.041
674.293
641.406
610.634
588.374
575.875
574.226
570.296
565.019
556.446
551.605
550.461
553.007
556.819
558.588
550.662
544.816
545.7
571.503
576.697
562.157
556.318
565.802
600.984
602.914
606.73
635.059
696.071
704.786
684.769
656.593
644.564
772.081
1556.74
821.736
562.982
504.525
465.447
456.96
456.031
464.171
477.332
496.149
527.349
582.846
637.3
684.184
744.316
857.206
106.166
929.525
994.127
1019.04
1164.15
1315.15
1521.95
1945.47
1510.36
853.322
771.09
722.329
664.581
638.257
606.508
591.276
589.468
583.791
569.965
559.414
553.178
551.262
550.41
554.13
560.376
570.082
564.015
550.001
545.367
570.627
577
563.457
556.519
567.558
601.159
602.782
609.505
658.531
696.863
690.743
670.724
651.277
686.085
1000.28
1275.05
786.486
553.47
476.723
468.688
465.154
464.095
472.661
485.75
504.77
534.476
592.692
654.444
704.574
761.655
873.407
108.76
956.2
1047.33
1060.85
1192.24
1368.29
1502.98
1746.84
2033.78
1038.49
805.188
760.586
711.191
664.892
626.775
608.634
604.761
592.973
581.39
565.099
558.382
556.056
558.678
557.572
561.634
568.511
576.344
577.667
555.855
545.365
569.944
576.547
563.881
556.01
566.882
602.378
601.296
616.212
679.276
693.757
681.169
660.476
671.209
775.103
1199.75
1086.66
761.303
527.988
467.957
472.46
474.981
473.277
482.03
493.987
513.474
543.269
601.758
670.026
724.863
781.427
892.231
111.424
971.604
1102.26
1143.14
1292.14
1543.94
1679.26
1639.64
2110.21
1798.12
972.352
798.764
750.513
691.538
651.258
627.063
614.837
607.865
587.816
573.192
564.44
564.229
564.433
568.003
566.911
567.928
571.56
580.5
587.916
564.454
546.162
568.082
575.001
564.136
556.27
568.988
600.095
600.85
631.009
683.198
684.488
670.37
663.099
729.04
913.121
1110.22
978.933
721.922
501.394
471.421
476.246
481.833
483.617
491.313
502.5
522.332
552.175
610.8
684.409
745.087
802.747
913.254
114.128
991.573
1125.02
1207.31
1433.12
1756.94
1850.92
1738.2
1898.85
2365.56
1215.53
886.768
775.68
726.592
676.196
652.713
635.056
617.258
597.985
579.101
570.47
566.617
566.42
565.864
568.364
569.541
570.488
576.47
583.815
592.139
572.619
546.526
565.276
571.215
562.79
554.953
570.415
596.318
599.367
656.644
684.44
677.775
663.16
691.3
815.305
1019.17
964.728
929.462
631.771
499.563
481.114
478.848
490.679
495.699
500.585
512.075
532.529
562.536
620.262
697.429
763.985
825.235
935.946
116.915
983.923
1178.5
1253.2
1536.59
1846.42
1908.07
1837.63
1826.99
2212.77
1337.34
1008.1
808.183
763.14
704.666
668.968
649.351
629.914
604.546
585.215
574.705
569.194
566.975
566.122
564.887
567.416
571.418
576.901
581.917
583.988
592.955
575.799
546.944
560.554
566.88
559.195
553.592
571.036
588.068
608.32
670.374
678.152
669.767
668.652
763.87
854.763
1056.59
970.86
869.373
562.713
498.572
481.381
485.138
500.227
506.822
509.875
520.789
541.993
572.625
628.654
709.036
781.326
848.798
959.354
119.884
987.899
1165.48
1271.95
1597.07
1830.73
1886.93
1863.15
1849.45
2117.11
1819.96
1115.05
898.997
792.957
736.888
699.875
671.099
645.552
616.652
594.918
579.698
573.006
568.716
566.79
567.166
567.317
572.139
577.734
583.114
585.69
585.119
589.978
576.532
546.846
554.777
561.52
555.162
551.897
572.393
583.19
629.981
671.927
670.222
667.775
697.019
835.778
849.399
1127.05
1031.91
816.5
563.95
506.98
483.042
504.019
507.683
511.472
515.371
529.008
549.359
582.589
636.468
718.54
797.419
872.722
982.821
123.169
981.671
1156.34
1288.99
1609.8
1738.64
1776.07
1861.94
1879.2
1894.19
2812.91
1319.93
1062.45
828.905
777.783
722.059
689.61
662.909
625.637
600.124
586.798
576.735
573.837
570.321
569.406
575.131
577.593
582.856
587.332
591.398
590.034
581.74
586.693
573.882
545.733
546.919
554.781
551.597
550.634
571.012
585.146
656.929
668.566
670.485
677.69
755.333
836.113
879.122
1179.39
1095.74
799.517
587.376
505.947
497.038
508.54
512.133
518.63
524.32
538.815
558.393
593.607
644.946
726.983
810.861
894.841
1005.51
126.94
981.675
1146.21
1298.86
1583.34
1644.28
1550.04
1815.57
1841.91
1776.64
2715.1
1625.48
1199.78
927.731
819.758
759.199
718.203
679.776
639.707
610.552
591.361
583.224
579.073
578.331
577.048
580.333
589.795
594.445
598.31
599.304
604.364
594.383
580.384
577.787
566.902
541.784
538.547
548.431
546.981
549.563
569.805
597.548
664.183
669.005
670.405
709.456
801.51
831.236
913.892
1171.66
1037.3
755.133
596.931
508.895
526.967
501.132
518.898
527.347
535.384
548.771
567.126
603.864
653.595
733.415
822.878
915.97
1027.39
131.424
1003.51
1110.06
1345.38
1560.68
1523.17
1398.15
1731.69
1835.38
1752.03
2122.87
1934.32
1304.19
1103.6
864.157
790.693
740.496
699.69
653.306
620.163
600.611
588.114
586.15
582.124
583.128
593.612
594.743
597.805
604.392
614.396
614.877
617.002
599.123
576.41
569.868
558.754
535.907
529.284
541.233
543.305
550.546
566.1
621.404
664.133
666.217
684.533
763.925
801.171
857.543
908.914
1155.44
974.328
732.532
610.416
524.211
525.301
507.159
527.568
536.142
543.714
558.382
577.03
614.284
660.615
738.243
832.235
934.384
1047.96
136.889
1075.35
1082.12
1307.63
1522.54
1442.24
1305.38
1643.69
1745.13
1757.33
1878.47
2106.21
1417.33
1245.37
957.151
836.042
769.908
721.846
669.627
628.066
605.369
594.227
589.468
588.072
588.033
598.399
608.217
605.702
613.44
626.454
638.307
631.611
626.823
600.141
573.313
557.071
547.482
527.36
520.537
535.693
540.101
550.904
570.788
648.974
663.928
666.559
719.033
800.174
810.53
855.543
906.121
1145.66
962.826
698.527
619.753
540.654
519.257
520.304
534.782
541.953
549.738
568.289
587.635
624.243
665.7
740.894
840.041
951.495
1067.32
143.596
1214.79
1057.97
1288.24
1474.1
1374.86
1218.56
1556.68
1683.52
1714.05
1817.69
2287.75
1609.95
1358.73
1107.1
892.655
796.079
742.212
686.67
644.007
612.774
596.668
591.504
590.005
594.816
608.947
614.869
623.994
632.829
641.734
654.245
663.927
647.375
631.398
599.196
565.296
543.8
534.378
518.329
512.627
531.675
538.033
551.619
587.758
655.739
658.934
682.318
764.721
798.298
843.744
851.498
925.855
1146.89
1000.12
728.644
595.955
551.816
526.661
523.683
538.415
550.507
561.56
577.488
597.745
627.198
666.395
742.051
845.961
965.385
1084.98
151.815
1413.67
1041.17
1264.6
1419.73
1333.56
1185.26
1435.9
1630.76
1663.41
1713.41
2689.59
1885.19
1464.93
1259.23
972.112
840.712
765.781
707.859
654.438
619.061
601.279
591.841
591.144
598.523
614.849
630.209
633.636
655.355
672.783
675.434
678.488
684.09
663.273
635.473
594.326
556.97
531.286
522.452
508.362
507.12
529.845
535.69
553.054
616.423
656.089
659.152
719.889
788.61
805.522
850.959
863.201
950.508
1176.91
1021.14
759.515
606.104
555.388
535.685
527.963
545.94
563.573
574.212
587.128
607.372
625.785
666.339
742.069
849.706
977.154
1101.14
161.877
1588.3
1037.39
1252.49
1371.92
1305.73
1201.07
1289.17
1552.9
1635.78
1607.64
3034.24
2216.7
1587.6
1384.89
1070.08
885.984
792.851
725.986
671.074
626.716
603.574
591.624
590.831
603.294
624.599
636.579
652.636
669.239
691.2
707.561
708.593
704.675
709.823
684.577
639.537
586.525
545.567
516.097
508.941
500.307
505.1
527.44
534.811
562.767
643.364
655.267
672.742
774.066
788.472
831.039
854.661
872.804
975.666
1201.41
1057.56
800.717
621.131
569.708
540.347
532.732
556.639
570.769
582.825
593.098
614.198
625.106
665.717
741.25
852.66
986.2
1115.69
174.438
1713.36
1051.49
1238.1
1350.41
1298.68
1258.65
1229.65
1439.46
1608.93
1503.34
2989.96
2465.07
1726.7
1501.34
1171.89
942.26
823.411
748.762
690.675
637.473
608.3
591.299
589.597
604.668
629.741
648.785
659.029
683.915
698.409
714.317
732.609
746.073
742.438
738.686
705.102
642.365
576.217
533.024
504.298
499.352
494.688
506.496
525.921
537.514
585.317
653.023
660.573
696.18
797.797
792.42
839.143
861.364
889.077
998.489
1188.08
1087.27
851.226
670.691
578.083
552.983
535.206
567.533
578.483
588.844
598.283
617.924
622.942
664.257
740.052
854.512
993.132
1128.62
190.873
1807.89
1079.16
1229.49
1314.85
1322.01
1365.27
1220
1286.13
1559.03
1479.91
2107.26
2555.28
1882.37
1620.49
1274.89
994.622
859.98
770.164
707.26
647.727
610.958
590.725
588.775
607.518
634.284
652.613
671.175
690.92
712.892
727.409
749.578
784.257
809.93
796.78
787.024
744.113
649.626
564.783
517.956
492.907
490.727
492.898
510.436
525.161
544.018
616.011
657.534
666.973
739.167
797.554
813.856
842.703
869.526
909.584
1021.81
1193.1
1079.71
884.878
722.195
599.49
556.707
546.479
574.375
582.545
595.168
602.409
619.686
622.578
662.9
740.849
857.344
997.721
1140.65
214.312
1883.31
1109.35
1220.6
1305.82
1348.27
1513.41
1227.49
1204.51
1481.91
1446.89
1703.2
2613.04
2054.93
1743.86
1373.5
1044.88
900.642
793.77
729.51
662.437
614.893
590.162
585.995
607.22
636.208
660.02
675.119
700.348
725.821
753.388
786.119
814.571
858.282
900.042
899.208
871.461
794.42
660.264
553.582
503.835
486.594
487.278
493.265
512.817
525.339
558.505
641.425
660.269
683.212
778.339
804.51
825.293
845.48
883.701
937.465
1004.73
1159.34
1079.88
890.247
763.522
613.739
569.481
560.835
566.654
590.561
601.666
610.968
622.181
622.344
660.057
741.519
859.917
1002.11
1151.5
250.873
1938.53
1148.83
1208.02
1291.42
1383.79
1663.47
1272.83
1169.14
1388.85
1423.12
1549.17
2699.89
2180.95
1873.42
1469.14
1083.84
937.179
822.203
746.94
676.877
618.621
589.548
584.512
606.432
639.154
664.408
683.472
705.434
733.158
763.323
805.684
857.121
901.502
961.046
1031.9
1054.54
995.272
865.136
670.411
540.331
491.788
484.285
486.719
496.744
514.728
531.202
583.082
653.18
666.135
708.966
788.519
818.975
829.032
853.919
906.554
954.395
976.946
1132.47
1058.51
893.369
801.837
637.261
578.394
572.613
570.81
600.847
610.953
620.071
626.162
635.703
657.993
742.252
863.834
1005.44
1161.75
298.143
1968.95
1196.32
1205.88
1303.99
1449.33
1801.4
1297.03
1174.59
1350.77
1403.29
1411.22
2875.88
2312.94
1989.96
1585.74
1122.76
960.202
851.062
769.414
693.939
624.106
588.631
582.134
608.364
646.462
672.176
687.276
716.036
744.992
781.925
819.447
866.987
930.367
1009.43
1119.36
1227.39
1267.97
1161.58
935.806
678.765
522.162
486.395
484.273
488.537
502.994
516.705
540.849
614.892
661.389
679.336
740.3
796.148
825.782
833.389
871.385
931.881
970.54
947.076
1094.61
1035.07
891.325
831.417
651.038
598.451
575.138
586.21
607
616.853
625.419
635.554
640.647
662.332
746.014
867.676
1009.05
1171.8
346.498
1973.48
1262.67
1206.71
1331.49
1536
1935.93
1304.98
1159.44
1306.15
1396.39
1346.43
3094.66
2454.43
2111.31
1711.42
1165.48
970.498
878.252
789.307
711.16
630.403
589.183
580.423
607.133
650.24
682.034
694.45
721.009
755.87
789.99
832.187
887.149
948.203
1050.81
1214.46
1405.71
1556.6
1561.27
1328.93
987.767
637.985
505.559
485.052
486.24
493.664
508.389
520.913
558.228
640.299
670.202
697.312
763.454
817.686
830.135
845.266
897.385
944.621
985.846
937.283
1028.64
1019.55
879.957
859.412
673.68
607.224
589.636
593.268
609.617
621.53
633.329
643.066
646.786
665.215
750.893
872.564
1013.1
1181.96
375.576
1964.17
1346.46
1236.28
1359.54
1643.28
2034.44
1307.33
1161.08
1256.39
1349.39
1319.91
3239.44
2597.92
2218.95
1847.87
1218.36
975.678
897.382
814.228
728.324
638.942
590.588
579.839
608.646
657.965
686.877
700.745
731.711
760.352
797.278
835.726
891.76
999.351
1084.35
1290.87
1565.48
1862.68
2036.97
1908.53
1472
1006.23
600.578
495.82
486.235
491.419
499.586
511.584
528.671
587.533
652.59
682.246
718.335
773.69
833.801
837.723
864.335
919.139
959.946
1021.16
957.275
986.891
1009.63
878.299
881.244
684.753
622.185
603.175
593.871
616.79
628.869
641.011
652.388
654.057
672.42
755.724
877.442
1017.08
1192.23
402.769
1935.65
1447.87
1279.15
1414.44
1851.73
2079.83
1305.72
1148.53
1225.28
1307.31
1308.39
3483.94
2713.44
2328.84
1980.08
1293.1
982.785
909.806
831.489
746.314
650.45
593.09
580.099
608.472
662.941
697.301
705.777
737.216
768.09
804.686
846.359
896.215
1000.44
1124.82
1343.69
1660.89
2066.44
2426.43
2505.3
2167.32
1549.82
885.997
538.204
493.772
491.042
497.608
503.748
515.341
542.307
619.759
662.475
699.045
736.458
788.518
840.106
850.818
886.525
930.67
986.783
1078.04
1066.71
965.623
1003.25
883.857
901.473
704.411
634.374
612.5
601.427
620.182
635.728
651.837
664.043
656.998
675.884
760.157
880.83
1022.88
1202.08
446.236
1891.76
1570.29
1333.17
1438.19
2123.54
2080.22
1306.21
1142.48
1154.47
1309.29
1308.86
4154.56
2813.86
2434.19
2109.64
1398.68
995.678
920.332
849.929
762.217
659.558
597.819
580.991
610.932
672.767
705.167
717.674
746.312
774.219
810.413
862.126
919.962
988.36
1114.71
1358.12
1715.92
2177.11
2577.6
2679.24
2587.57
2256.78
1518.06
706.863
515.867
493.898
497.041
501.705
507.398
522.119
564.028
643.183
675.111
719.823
753.405
812.202
847.48
866.778
907.286
944.067
1024.36
1130.17
1253.3
960.693
995.773
891.851
921.589
711.419
647.898
628.004
603.458
623.379
647.184
665.002
672.263
654.968
680.324
763.981
884.471
1029.24
1211.52
520.464
1846.12
1759.39
1410.86
1461.88
1722.99
2085.64
1307.78
1150.05
1097.7
1286.87
1257.42
4604.69
2909.34
2528.91
2239.87
1527.31
1021.72
933.737
865.468
775.408
672.632
601.896
583.765
614.225
685.087
720.723
725.954
759.163
778.925
811.286
858.124
911.227
1009.14
1112.6
1369.98
1775.97
2246.84
2613.36
2659.55
2659.02
2596.07
2172.65
1213.74
572.189
508.978
496.959
501.421
505.215
512.33
531.604
596.545
654.74
692.732
737.473
772.592
825.379
862.648
886.378
922.084
963.943
1074.24
1157.7
1291.77
959.41
994.742
915.682
942.497
728.367
659.69
636.403
603.865
623.33
661.504
678.045
684
657.358
682.596
766.297
886.963
1037.2
1220.1
691.191
1797.5
2096.79
1521.43
1531.17
1954.35
2059.91
1291.25
1147.61
1036.62
1291.5
1222.07
3964.43
2992.01
2632.3
2363.52
1673.54
1063.19
950.345
889.017
790.806
684.634
611.113
588.043
622.477
708.817
736.85
744.021
766.489
789.476
813.169
854.923
920.591
1010.84
1181.25
1462.21
1750.93
2296.79
2645.64
2687.17
2629.68
2625.77
2433.31
1824.35
761.076
535.171
506.925
501.767
504.696
509.109
518.054
547.567
631.413
666.221
716.511
748.72
793.74
833.937
880.377
906.812
936.478
990.848
1128.55
1175.35
1211.83
976.059
994.499
925.461
965.197
734.813
669.999
644.306
614.087
630.185
673.26
696.464
689.801
654.845
685.046
768.151
889.044
1043.8
1228.02
950.658
1747.58
2558.5
1662.64
1601.77
2297.52
2006.82
1269.17
1189.89
992.515
1254.72
1232.64
2487.14
3060.23
2730.34
2484.02
1840.36
1126.46
967.401
915.995
801.47
693.487
618.554
598.736
635.68
736.953
758.285
756.027
782.821
795.803
813.502
858.248
896.849
989.937
1176.36
1456.69
1800.83
2319.65
2730.1
2683.37
2649.38
2639.27
2435.42
1998.51
1226.2
586.976
523.169
505.97
504.636
508.419
513.143
525.241
573.502
654.402
682.419
737.943
763.193
813.114
843.305
900.015
927.543
954.771
1024.4
1172.66
1191.53
1184.37
986.734
990.098
950.957
994.27
752.73
677.713
649.394
625.662
637.844
692.294
703.676
690.724
665.186
686.495
765.161
889.147
1048.8
1235.3
1063.78
1702.14
3077.42
1835.28
1730.23
2722.38
1946.32
1238.76
1206.25
970.288
1229.61
1272.16
2329.41
3309.56
2838.54
2599.7
2018.96
1200.55
978.845
937.25
823.565
707.101
628.145
608.335
666.689
763.521
787.71
779.176
792.763
809.166
816.407
853.103
898.675
994.888
1170.63
1453.23
1790.47
2311.94
2829.13
2840.96
2708.26
2597.51
2437.02
1998.41
1439.82
729.737
545.808
519.049
505.769
508.359
511.868
516.465
537.786
609.582
667.601
704.638
749.078
787.645
823.696
855.946
922.015
945.955
975.515
1062.97
1209.6
1231.02
1224.26
1012.76
994.559
972.641
1024.19
764.893
684.853
666.592
633.857
658.206
700.891
711.27
696.999
671.131
685.313
761.74
886.267
1054.65
1242.64
1129.55
1668.18
3558.51
2069.11
1818.25
2609.77
1917.98
1241.65
1245.96
973.044
1246.48
1349.74
2314.92
3528.43
2992.56
2717.34
2196.76
1287.77
983.885
964.668
840.58
719.194
644.051
621.376
690.338
817.593
808.178
800.259
814.325
817.681
820.131
851.111
875.997