/*--------------------------------*- C++ -*----------------------------------*\
| =========                 |                                                 |
| \\      /  F ield         | OpenFOAM: The Open Source CFD Toolbox           |
|  \\    /   O peration     | Version:  2212                                  |
|   \\  /    A nd           | Website:  www.openfoam.com                      |
|    \\/     M anipulation  |                                                 |
\*---------------------------------------------------------------------------*/
FoamFile
{
    version     2.0;
    format      ascii;
    arch        "LSB;label=32;scalar=64";
    class       volScalarField;
    location    "100";
    object      p;
}
// * * * * * * * * * * * * * * * * * * * * * * * * * * * * * * * * * * * * * //

dimensions      [0 2 -2 0 0 0 0];

internalField   nonuniform List<scalar> 
165000
(
-949.25
-932.899
-1958.54
-802.004
-1918.5
-1870.66
3.47952
-1640.79
-1829.53
-1619.75
-61.7493
6.06401
-1601
-1597.53
-1613.25
-40.868
-78.121
-45.8085
-1376.12
-1611.72
-1727.23
-19.5676
-37.5682
-101.373
-100.048
-1386.87
-1782.84
-1774.11
17.4176
16.4155
-26.4588
-112.249
-146.957
-1390.03
-1889
-1804.75
64.2755
142.752
51.417
-19.0544
-111.892
-181.514
-1397.44
-2028.08
-1853.34
204.85
250.601
272.502
102.89
-20.1198
-76.5728
-357.435
-1391.83
-2204.69
-1910.55
468.527
627.061
399.495
409.749
142.028
-28.7512
-36.6686
-823.521
-1367.53
-2429.09
-1967.96
431.5
947.194
1002.54
536.146
524.098
195.225
-45.7303
-21.7482
-1640.51
-1438.28
-2711.53
-2025.65
321.203
990.937
1350.11
1283.58
643.85
634.231
232.918
-68.3164
-65.1725
-2498.03
-1509.95
-2972.67
-2085.56
259.448
827.351
1483.83
1810.39
1537.77
744.266
705.547
276.789
-95.8124
-156.459
-3003.4
-1436.8
-3125.09
-2142.43
200.118
718.366
1328.31
1958.38
2227.1
1800.91
830.196
768.115
302.088
-122.195
-261.307
-3080.44
-1290.01
-3229.94
-2205.68
134.843
648.52
1207.67
1773.49
2400.55
2534.29
1968.29
924.609
810.365
325.758
-150.848
-364.125
-3023.74
-1163.93
-3316.82
-2270.89
105.788
537.847
1144.53
1640.19
2234.45
2792.77
2696.21
2063.73
1006.04
857.269
345.941
-176.715
-461.279
-2956.99
-1071.41
-3380.04
-2341.64
99.5644
461.449
982.162
1593.28
2110.63
2633.48
3136.07
2790.82
2149.57
1089.02
892.662
358.775
-204.67
-557.849
-2878.87
-1019.96
-3425.28
-2416.55
102.626
400.353
863.777
1387.57
2063.53
2514.51
3048.68
3433.03
2785.97
2271.22
1166.83
927.814
365.249
-229.896
-654.455
-2801.32
-1003.39
-3458.3
-2499.23
102.514
358.263
755.851
1239.71
1820.21
2480.52
2958.13
3411.13
3702.19
2914.59
2398.63
1245.43
957.468
351.119
-260.755
-751.577
-2721.28
-1028.28
-3480.18
-2588.55
102.129
312.41
669.413
1111.07
1657.9
2211.59
2930.64
3347.94
3781.7
3958.61
3011.44
2505.37
1309.59
985.772
309.508
-294.212
-853.917
-2643.18
-1098.11
-3491.52
-2691.18
93.5903
275.091
583.271
997.194
1498.82
2042.41
2644.37
3332.26
3766.09
4123.86
4198.84
3151.69
2568.44
1364.8
1011.01
263.735
-330.826
-953.084
-2567.35
-1226.14
-3496.89
-2803.53
68.1903
240.092
511.472
875.164
1337.93
1860.3
2465.51
3038.82
3773.79
4158.64
4471.4
4431.69
3271.48
2686.32
1418.66
1038.14
175.985
-383.117
-1063.19
-2501.04
-1418.79
-3497.51
-2933.07
44.4886
190.653
452.567
761.833
1175.36
1673.24
2262
2843.67
3476.45
4182.3
4564.05
4808.1
4659.09
3448.97
2810.03
1479.13
1025.64
101.427
-441.631
-1167.14
-2451.73
-1689.68
-3492
-3071.38
18.2664
148.432
377.456
669.478
1025.89
1473.85
2030.08
2631.94
3280.77
3883.31
4623.71
4970.69
5156.41
4883.29
3639.47
2889.61
1536.16
1024.22
87.1438
-503.655
-1287.42
-2426.56
-2020.3
-3489.58
-3235.1
20.7656
97.7054
315.461
571.389
900.764
1286.9
1786.43
2376.69
3036.24
3692.08
4342.96
5067.46
5387.66
5496.93
5112.78
3829.8
2990.67
1600.72
1023.05
64.5662
-572.88
-1407.04
-2427.22
-2374.74
-3483.09
-3412.26
30.6474
95.0237
244.548
500.171
772.46
1137.13
1563.36
2100.64
2746.1
3436.92
4142.18
4804.32
5528.69
5806
5853.03
5340.93
4026.46
3081.18
1654.21
1010.62
31.5889
-644.068
-1544.71
-2444.33
-2712.91
-3473.64
-3599
52.481
101.88
235.433
412.258
679.101
982.895
1378.44
1837.42
2430.34
3115.39
3854.95
4599.81
5287.42
5994.05
6243.81
6206.13
5580.99
4224.16
3165.11
1705.36
990.222
-7.63964
-724.768
-1683.97
-2470.03
-3066.83
-3481.13
-3800.36
45.516
130.398
232.187
373.573
571.387
863.376
1192.27
1621.91
2124.55
2759.76
3500.09
4283.42
5064.84
5776.99
6482.74
6685.99
6574.99
5822.57
4420.56
3254.31
1747.12
961.739
-61.3534
-810.83
-1839.31
-2498.26
-3517.8
-3500.22
-4019.61
47.9062
104.607
264.707
338.579
512.955
732.152
1047.08
1408.44
1873.37
2414.83
3105.58
3892.32
4719.21
5535.02
6288.85
6981.88
7151.19
6944.76
6076.74
4613.6
3338.47
1785.46
920.899
-126.107
-913.927
-1997.42
-2541.74
-4158.08
-3514.83
-4264.12
57.1652
110.775
216.236
338.416
456.78
649.078
890.24
1232.98
1624.61
2124.76
2718.35
3451.53
4295.03
5162.62
6017.57
6816.39
7509.26
7625.48
7329.33
6333.77
4801.68
3428.77
1810.67
871.916
-206.704
-1026.21
-2170.68
-2614.96
-4989.84
-3532.38
-4521.97
48.2011
121.49
221.214
296.168
416.075
577.291
787.299
1050.46
1417.86
1841.79
2385.83
3018.55
3813.07
4700.91
5615.31
6509.75
7370.19
8048.21
8122.82
7717.63
6601.24
4987.93
3507.47
1830.84
810.559
-301.122
-1156.71
-2347
-2732.24
-5868.61
-3524.93
-4788.39
42.3412
110.673
209.2
330.167
375.499
507.28
693.738
925.641
1210.87
1602.31
2064.66
2644.97
3335.93
4174.78
5117.26
6078.03
7012.8
7943.02
8616.13
8632.22
8119.01
6870.21
5161.3
3587.64
1839.38
738.994
-411.493
-1297.74
-2530.88
-2887.91
-6554.34
-3418.31
-5035
41.6958
108.383
226.416
309.364
428.91
480.443
608.326
814.323
1065.66
1368.42
1787.8
2283.39
2915.86
3648.43
4551.08
5536.45
6550.42
7529.37
8546.14
9198.07
9161.23
8525.43
7143.51
5334.88
3653.66
1839.81
655.13
-536.086
-1459.38
-2711.9
-3067.98
-6899.94
-3175.26
-5267.78
51.7384
124.123
236.269
354.37
406.085
512.654
569.587
723.689
935.789
1199.36
1525.8
1968.99
2510.68
3181.53
3977.19
4927.36
5964.28
7038.32
8053.61
9176.62
9804.5
9703.75
8940.44
7415.85
5494.6
3712.13
1830.31
558.725
-676.592
-1635.94
-2900.59
-3255.91
-6958.97
-2847.85
-5501.52
52.3467
144.839
266.02
381.397
464.607
493.943
570.73
660.551
851.337
1051.87
1332.09
1676.45
2153.96
2730.82
3461.54
4301.25
5316.84
6396.05
7536.34
8598.34
9833.72
10428.5
10258.4
9359.99
7689.12
5649.25
3756.71
1809.68
449.123
-832.019
-1828.92
-3096.1
-3446.56
-6889.78
-2542.1
-5752.33
59.0834
155.864
296.959
419.773
500.572
563.711
601.498
639.63
781.76
965.493
1163.95
1454.85
1828.78
2330.58
2961.34
3734.1
4639.76
5704.64
6835.92
8052.02
9156.99
10508.4
11068.4
10827.3
9785.31
7956.52
5794.29
3787.4
1778.12
325.65
-1003.67
-2030.49
-3302.53
-3640.61
-6829.52
-2321.5
-6029.72
58.7644
174.761
325.959
455.133
553.337
614.457
661.911
694.106
759.745
881.695
1058.79
1265.13
1574.52
1971.79
2512.69
3181.66
4020.61
4972.07
6105
7281.06
8570.14
9758.76
11183.1
11733.8
11403.3
10211.8
8223.38
5927.02
3805.3
1732.1
189.496
-1192.06
-2244.94
-3516.23
-3842.09
-6817.03
-2203.06
-6322.89
60.3705
175.761
361.406
491.967
602.225
680.671
722.207
753.854
767.939
844.026
953.798
1146.15
1364.01
1683.46
2116.37
2683.85
3413.15
4297.78
5318.27
6501.02
7735.74
9097.63
10382.9
11874.2
12406.1
11992.6
10640.7
8476.94
6053.89
3807.28
1672.69
40.2662
-1397.19
-2473.68
-3739.59
-4047.8
-6851.36
-2200.54
-6658.16
61.0648
192.386
377.796
531.361
642.969
734.158
803.345
841.624
840.398
832.762
897.34
1013.81
1209
1448.97
1789.86
2250.18
2860.82
3631.7
4590.41
5658.04
6910.87
8193.53
9629.33
11035.2
12573.4
13105.1
12583.5
11064.2
8731.15
6162.74
3796.65
1595.35
-121.827
-1620.47
-2721.14
-3983.48
-4257.43
-6929.2
-2322.21
-7040.84
65.9277
206.655
419.095
564.626
699.653
781.031
859.086
915.143
896.06
883.076
881.941
939.506
1047.28
1261.67
1526.42
1885.35
2385.53
3025.33
3862.26
4877.37
6013.26
7311.7
8660.79
10171.3
11684.6
13294.7
13800.3
13185
11488.2
8961.67
6263.96
3766.29
1501.67
-300.566
-1861.54
-2986.87
-4255.77
-4478.09
-7050.93
-2567.79
-7443.47
70.0805
228.172
420.939
609.159
738.704
850.062
925.669
964.654
973.023
892.591
902.355
904.481
941.724
1059.89
1298.55
1585.66
1978.43
2510.32
3194.94
4083.49
5182.73
6362.48
7727.84
9127.18
10719.5
12348.5
14012.5
14521.2
13784.2
11895.3
9193.81
6343.09
3720.18
1389.31
-495.699
-2121.66
-3270.94
-4556.61
-4711.97
-7213.16
-2922.47
-7885.95
72.7712
241.325
433.682
599.155
769.197
885.612
1014.52
1057.7
1034.16
993.6
920.668
905.981
891.235
936.331
1057.41
1324.42
1637.05
2060.31
2635.54
3353.25
4318.5
5477.1
6727.9
8131.5
9601.23
11268.6
13004.1
14748.3
15228.8
14385
12302.3
9392.55
6409.56
3650.25
1263.79
-708.561
-2398.65
-3574.04
-4884.49
-4963.51
-7413.4
-3375.74
-8359.36
72.0275
237.805
429.512
615.394
798.999
935.803
1071.24
1153.04
1143.49
1066.6
989.616
918.838
837.946
838.701
909.574
1041.28
1335.33
1677.43
2139.62
2749.93
3518.91
4542.15
5784.49
7080.13
8546.41
10066.1
11817.3
13663.2
15468.1
15951
14978.1
12677.7
9590.78
6449.78
3565.51
1118.79
-939.209
-2692.93
-3894.55
-5241.94
-5235.21
-7647.92
-3929.98
-8843.9
80.0598
239.148
439.794
608.92
827.061
1006.26
1149.82
1237.42
1244.6
1187.02
1066.58
946.059
857.121
749.942
758.803
855.954
1007.54
1335.9
1709.26
2208.21
2865.25
3675.9
4779.49
6074.2
7443.05
8942.14
10532.1
12354.9
14300.2
16187
16648.9
15553.4
13048.4
9747.6
6475.08
3457.37
956.287
-1198.27
-3004.74
-4235.88
-5626.25
-5530.34
-7917.36
-4591.68
-9335.95
86.2454
252.297
449.923
622.56
846.624
1054.81
1230.16
1345.12
1348.04
1283.6
1169.06
1007.56
846.35
750.804
668.095
655.044
780.412
966.02
1323.25
1732.92
2271.44
2972.82
3840.41
5007.25
6374.52
7789.16
9343
10979.3
12879.9
14918.8
16868.3
17341.5
16105.8
13367.9
9894.8
6467.82
3334.87
770.647
-1484.59
-3338.07
-4596
-6037.05
-5849.82
-8223.92
-5367.8
-9833.07
87.938
254.39
440.618
606.817
856.788
1108.2
1304.77
1436.47
1471.16
1401.21
1262.83
1093.61
895.877
708.873
614.379
534.465
528.836
684.69
909.306
1299.99
1746.44
2327.77
3082.74
3997.71
5245.23
6653.11
8137.61
9719.37
11418
13375.6
15491.1
17527.6
17990.6
16602.3
13671.8
9997.46
6441.05
3191.43
570.151
-1803.94
-3697.23
-4979.74
-6474.65
-6197
-8572.14
-6257.01
-10327.1
95.6803
244.698
440.627
592.441
855.127
1138.31
1368.2
1537.87
1581.51
1534.31
1370.68
1165.85
948.391
728.286
537.767
440.637
393.622
389.936
565.638
838.602
1263.35
1751.62
2378.4
3183.67
4159.79
5473.61
6935.46
8463.81
10091
11826.2
13837.9
16018.7
18118.9
18596.1
17049
13902
10087.1
6376.92
3029.44
339.682
-2142.79
-4081.36
-5387.01
-6937.03
-6569.64
-8967.38
-7244.32
-10806.4
103.625
240.262
441.381
585.69
848.401
1173.52
1427.48
1628.53
1701.15
1651.98
1498.42
1253.62
991.525
735.083
507.551
326.955
216.634
230.98
240.571
431.008
754.46
1216.73
1749.3
2426.35
3285.01
4314.89
5705.74
7194.63
8783.27
10432.4
12211.8
14248.2
16467.9
18652.1
19118.7
17388.7
14091.2
10130.1
6284.42
2849.51
53.7605
-2508.31
-4492.85
-5821.91
-7424.14
-6971.88
-9412.97
-8295.85
-11255.2
111.396
238.082
431.346
579.807
828.436
1194.17
1484.24
1718.83
1808.84
1782.74
1612.45
1362.01
1048.91
742.543
470.268
242.897
84.237
-24.8229
30.386
72.0814
278.798
651.642
1156.99
1739.25
2463.19
3376.37
4471.68
5926.02
7450.66
9075.03
10755.6
12552.7
14595.4
16839.3
19068.8
19531.1
17644.6
14181.9
10142.8
6149.77
2663.03
-284.258
-2901.42
-4933
-6284.64
-7936.2
-7399.85
-9910.3
-9364.95
-11659
113.478
236.973
420.636
567.782
805.361
1211.76
1533.53
1804.55
1922.36
1906
1736.2
1451.86
1130.71
756.651
427.955
134.683
-51.6877
-200.086
-277.268
-192.159
-101.039
118.096
535.529
1086.99
1719.93
2499.05
3465.16
4619.75
6139.76
7687.98
9350.76
11040
12850.9
14860.5
17093.7
19375.9
19804.6
17737.2
14211.6
10095.7
5982.03
2457.54
-643.722
-3320.92
-5402.92
-6779.73
-8475.84
-7857.24
-10459.7
-10397.7
-12018.1
114.203
230.282
407.366
550.453
783.932
1220.55
1571.81
1883.2
2031.36
2035.58
1856.28
1562.5
1194
801.732
404.094
46.3912
-234.493
-380.787
-510.338
-548.864
-453.712
-295.079
-52.9492
398.95
1005.41
1688.88
2521.35
3543.89
4765.92
6334.17
7918.56
9593.46
11288.7
13084.9
15025.7
17232
19514.6
19918.4
17718.1
14142.3
9995.8
5770.71
2213.84
-1047.02
-3770.48
-5906.23
-7309.18
-9041.25
-8342.59
-11058.6
-11345.2
-12361.8
110.941
227.896
387.199
528.219
753.96
1222.82
1601.01
1957.27
2136.9
2160.27
1978.12
1661.64
1274.97
809.288
394.539
-12.5698
-352.769
-616.695
-749.662
-838.308
-831.798
-725.022
-499.295
-234.294
243.657
914.242
1649.16
2540.81
3614.59
4900.86
6507.14
8123.74
9812.21
11486.2
13252.7
15073.9
17213.3
19516.9
19881.8
17513.1
14007.8
9834.29
5519.5
1924.41
-1481.11
-4250.28
-6442.49
-7874.63
-9633.93
-8864.95
-11700.2
-12180.7
-12732.8
112.154
219.312
372.366
497.71
717.181
1216.71
1623.34
2023.68
2238.82
2283.34
2095
1766.13
1341.81
851.619
354.66
-93.5176
-475.617
-808.74
-1056.74
-1171.34
-1186.98
-1138.07
-1005.84
-726.642
-429.074
71.1197
811.49
1593.41
2546.32
3675.95
5027.41
6660.23
8299.85
9992.48
11628.8
13341.4
14985.7
17049.4
19349.6
19690
17239.1
13794
9623.78
5220.94
1599.71
-1945.58
-4768.56
-7013.08
-8478.84
-10247.4
-9425.87
-12374.5
-12911.5
-13173.1
113.906
216.296
356.091
465.097
666.846
1193.47
1637.36
2081.65
2334.14
2402.63
2205.67
1861.35
1409.54
864.303
351.064
-171.873
-614.259
-973.309
-1274.98
-1486.42
-1593.64
-1551.29
-1458.06
-1306.23
-979.22
-640.792
-116.182
697.232
1527.91
2546.04
3722.65
5136.17
6793.09
8447.16
10139
11712.9
13344.3
14754.2
16727.9
19091.8
19391.5
16844
13501
9380.38
4877.88
1235.32
-2443.43
-5323.39
-7616.11
-9120.37
-10882.4
-10029
-13077.8
-13561.7
-13719.4
116.843
219.09
338.741
419.123
602.758
1153.76
1643.77
2132
2424.63
2515.77
2307.63
1951.32
1467.96
884.804
302.414
-236.505
-735.57
-1175.06
-1504.5
-1761.38
-1946.24
-2040.4
-1934.51
-1789.75
-1615.73
-1255.91
-872.058
-315.094
568.475
1446.01
2531.89
3759.59
5230.84
6899.9
8558.77
10241.8
11747.1
13181.2
14406.6
16283.7
18748.7
18967.3
16424.4
13131.6
9118.34
4491.32
835.072
-2981.73
-5905.2
-8256.01
-9803.73
-11540.3
-10670.4
-13808.6
-14155.7
-14391.6
120.948
223.74
330.318
358.031
520.774
1100.23
1645.69
2174.66
2506.69
2619.27
2400.69
2033.11
1518.04
892.299
273.197
-344.018
-873.842
-1352.27
-1768.76
-2063.73
-2267.61
-2392.75
-2465.52
-2335.43
-2159.93
-1945.73
-1555.93
-1123.39
-525.625
425.501
1354.18
2507.02
3776.47
5306.38
6980.72
8634.86
10316
11659.4
12938.2
13973.5
15702.4
18378.4
18418.3
15987.3
12695.9
8830.29
4085.9
398.563
-3568.85
-6524.16
-8928.98
-10524.8
-12229.7
-11341.4
-14569.5
-14715
-15187.6
132.492
224.86
316.376
300.377
404.634
1038.17
1644.98
2203.37
2579.1
2716.55
2484.2
2104.32
1557
892.979
220.454
-422.45
-1030.51
-1560.76
-1996.01
-2370.41
-2647.13
-2794.05
-2863.04
-2910.17
-2772.69
-2551.58
-2296.51
-1876.9
-1395.99
-745.008
264.267
1249.34
2467.3
3782.27
5361.99
7032.6
8675.16
10324
11375.5
12784.2
13431.8
15027.2
17828.8
17786.9
15496.6
12206.7
8450.6
3654.74
-81.0557
-4180.1
-7196
-9641.81
-11291.1
-12952.6
-12038.8
-15351.3
-15260.1
-16088.6
147.752
228.204
288.778
238.753
267.284
943.708
1628.62
2213.52
2648.3
2806.93
2557.93
2164.54
1585.22
881.713
159.238
-545.817
-1183.67
-1787.14
-2300.66
-2678.43
-2985.19
-3221.54
-3335.48
-3349.74
-3350.02
-3227.52
-2968.81
-2673.9
-2225.05
-1685.58
-978.638
86.8599
1134.92
2412.98
3764.02
5397.46
7055.53
8705.67
10143.3
11153.5
12623.9
12820.2
14431.1
17036
17180.3
14981.6
11714.3
8011.16
3208.17
-604.771
-4817.5
-7894.13
-10387.3
-12098.3
-13716.3
-12757.4
-16148.5
-15811.3
-17071.3
165.838
230.421
270.865
161.986
125.725
809.446
1579.76
2206.84
2704.09
2878.14
2620.04
2212.34
1601.13
860.123
83.7493
-662.068
-1374.53
-2015.04
-2576.14
-3032
-3367.34
-3588.55
-3780.24
-3875.66
-3860.9
-3840.23
-3700.12
-3413.19
-3079.12
-2593.68
-1996.6
-1223.36
-107.806
1006.83
2340.76
3733.2
5408.98
7054.46
8667.76
9867.85
11159.8
12451.7
12209
13900.8
16385.3
16584.1
14445.7
11184.7
7539.51
2751.59
-1137.06
-5472.99
-8608.66
-11163.6
-12953.2
-14518
-13503.4
-16955.8
-16387.1
-18115.6
186.035
232.115
252.855
86.2319
-4.04214
657.067
1500.26
2170.12
2739.41
2936.66
2667.44
2246.2
1604.23
824.847
-7.68211
-804.961
-1562.92
-2279.92
-2884.33
-3363.48
-3751.26
-4047.49
-4208.69
-4353.92
-4444.32
-4383.93
-4363.51
-4198.74
-3887.58
-3511.59
-2990.37
-2330.88
-1487.19
-314.764
863.115
2251.91
3678.12
5402.59
7051.25
8471.16
9696.62
11242.9
12387.2
11725
13528.2
15866.5
15949.3
13876.1
10677.6
7052.3
2255.95
-1734.35
-6175.01
-9360.16
-11976
-13850.5
-15361
-14276.6
-17775.4
-17003.4
-19208.6
204.171
231.708
239.394
11.7837
-99.5603
493.187
1404.5
2097.84
2758.59
2985.4
2702.48
2265
1594.94
775.614
-115.074
-957.735
-1780.47
-2542.21
-3204.77
-3730.65
-4125.57
-4418.42
-4670.39
-4819.12
-4932.8
-5030.41
-4969.43
-4911.9
-4731.73
-4396.03
-3982.59
-3403.6
-2682.94
-1767.22
-536.652
701.021
2144.78
3611.76
5373.86
6991.64
8188.75
9671.88
11383.4
12551
11859.1
13641.1
15517.2
15355.4
13277.7
10146.4
6520.73
1718.95
-2383.58
-6904.59
-10144.8
-12816.5
-14794.1
-16243.2
-15081.8
-18612.9
-17668.8
-20341.5
223.434
232.86
232.646
-55.3095
-164.076
333.062
1305.19
2004.9
2744.66
3001.99
2727.82
2268.88
1572.92
711.276
-240.736
-1129.35
-2008.17
-2834.47
-3532.5
-4095.82
-4537.79
-4854.04
-5078.02
-5311.42
-5469.72
-5567.52
-5632.65
-5575.71
-5487.5
-5294.86
-4943.7
-4481.19
-3836.23
-3053.56
-2064.32
-778.078
522.535
2017.56
3525.11
5365.95
6603.92
8074.87
9778.14
11708
13159.9
13189.6
14224.2
15214.1
14801
12655
9599.24
5970.53
1148.17
-3063
-7644.23
-10973.1
-13690
-15778.8
-17164.8
-15917.8
-19472.7
-18381.7
-21505.2
241.104
241.257
228.706
-122.293
-197.536
198.644
1209.58
1892.23
2700.11
3005.91
2733.03
2260.6
1538.93
630.62
-384.501
-1315.88
-2256.66
-3135.77
-3885.01
-4481.63
-4939.03
-5275.45
-5552.05
-5750.72
-5951.4
-6125.31
-6230.26
-6279.58
-6256.62
-6106.83
-5899.41
-5525.42
-5011.65
-4282.7
-3429.69
-2371.72
-1032.09
332.116
1869.14
3427.62
5308.18
6114.04
8102
9966.92
12288
14269.2
14843.4
14831.1
14928
14351.6
12023.2
9032.1
5397.41
551.654
-3779.92
-8429.35
-11832.3
-14591.7
-16812.8
-18125.7
-16784.9
-20356.8
-19131.6
-22685.3
257.238
253.855
225.476
-186.013
-213.542
102.542
1122.37
1772.39
2647.4
3052.94
2713.28
2237.94
1494.91
533.732
-546.644
-1518.95
-2519.57
-3456.7
-4243.07
-4876.15
-5365.02
-5704.88
-5979.16
-6251.14
-6437.06
-6619.09
-6812.1
-6950.92
-6981.33
-6951.76
-6784.96
-6537.58
-6141.52
-5559.97
-4744.15
-3819.45
-2684.36
-1300.69
133.753
1700.25
3329.46
5033.34
5852.09
8210.03
10275
13089.6
15364.2
15970.1
15295.9
14650.2
13852.9
11419.5
8447.8
4795.07
-74.455
-4500.63
-9241.22
-12699.7
-15493
-17897.3
-19123.8
-17675.8
-21268
-19899
-23866.6
269.853
268.788
220.718
-246.232
-230.34
40.7082
1044.75
1669.14
2563.09
3091.2
2683.31
2194.97
1440.13
420.05
-728.075
-1736.75
-2799.46
-3791.21
-4622.22
-5285.27
-5790.68
-6135.77
-6420.31
-6647.19
-6902.57
-7143.03
-7333.54
-7544.28
-7712.62
-7736.81
-7720.86
-7522.06
-7227.81
-6787.83
-6123.96
-5218.36
-4209.93
-3011.12
-1568.53
-90.0111
1517.39
3208.5
4448.95
5882.17
8348.48
10823.7
13706.7
16212.4
16632.3
15393.8
14366.2
13362.8
10853.9
7827.58
4120.76
-762.763
-5265.34
-10091.8
-13576.4
-16411.9
-19023.5
-20154.5
-18593.8
-22206.3
-20660.9
-25034.1
280.604
278.696
220.793
-302.083
-259.776
-2.74343
980.791
1573.32
2443.19
3002.9
2653.8
2133.51
1372.06
287.187
-927.514
-1968.77
-3093.83
-4140.32
-5008.32
-5699.33
-6233.39
-6563.24
-6858.73
-7096.5
-7301.74
-7595.03
-7909.43
-8126.24
-8347.94
-8546.4
-8574.99
-8528.43
-8321.36
-7958.92
-7452.34
-6699.01
-5697.44
-4610.96
-3341.09
-1844.34
-328.407
1321.89
3002.68
3920.53
5962.92
8622.81
11301.6
14147
16717.1
16995.2
15251
14077.5
12795.8
10301.3
7167.12
3419.36
-1460.23
-6064.48
-10962
-14400.7
-17363.1
-20185.1
-21220.8
-19538.6
-23161
-21394.4
-26182.6
289.931
287.876
221.685
-346.81
-298.503
-38.7758
931.304
1480.29
2338.22
2812.12
2622.1
2058.54
1288.14
133.481
-1145.99
-2214.67
-3402.31
-4501.75
-5411.01
-6125.56
-6675.05
-6994.65
-7276.14
-7502.39
-7757.9
-8010.55
-8337.7
-8720.73
-8987.32
-9222.49
-9450.33
-9477.81
-9406.05
-9168.58
-8725.91
-8123.14
-7268.72
-6175.04
-5002.64
-3681.09
-2121.18
-596.955
1159.56
2584.62
3764.46
6020.38
9007.67
11510.3
14698.8
16895.8
17150
15005
13791.9
12291
9669.58
6460.12
2668.52
-2194.11
-6877.9
-11849.3
-15253.5
-18298.6
-21382.1
-22319.9
-20508.2
-24122.6
-22078
-27318.8
299.321
290.963
225.953
-383.773
-339.606
-69.9561
891.436
1398.15
2264.16
2637.96
2596.48
1970.24
1188.89
-44.0282
-1385.11
-2472.76
-3724.54
-4875.6
-5820.34
-6553.57
-7132.8
-7420.35
-7708.59
-7881.44
-8119.06
-8464.88
-8816.08
-9179.12
-9613.79
-9948.89
-10195.8
-10443.7
-10478.1
-10341.9
-10063.4
-9504.64
-8792.75
-7833.9
-6641.17
-5397.66
-4014.7
-2406.62
-882.008
889.408
1966.53
3842.69
6205.36
9225.94
11726
15198.4
16978.8
17105.2
14816.5
13500.4
11766.9
9018.8
5748.59
1900.32
-2969.59
-7707.39
-12752.9
-16211.5
-19224.3
-22610.5
-23452
-21508.6
-25073.1
-22693.2
-28458.9
308.405
301.778
230.008
-409.972
-374.599
-95.6975
856.265
1332.87
2201.64
2557.94
2634.15
1873.3
1079.9
-248.652
-1646.68
-2743.75
-4058.47
-5258.95
-6242.9
-6989.88
-7585.67
-7847.01
-8109.54
-8271.28
-8487.51
-8809.32
-9236.72
-9718.09
-10111.8
-10618.7
-11039.7
-11294.2
-11531.3
-11543.8
-11330.6
-10977.6
-10277.2
-9440.77
-8369.62
-7092.54
-5780.38
-4351.18
-2705.72
-1175.13
579.971
1518.73
3838.12
6429.53
9203.37
12113.4
15415.8
17020.4
16926.2
14690.9
13210
11238.1
8338.74
5003.25
1102.96
-3782.46
-8554.27
-13673.3
-17192.5
-20199.7
-23858.1
-24615.3
-22550
-25995.3
-23231.2
-29598.3
315.416
317.934
235.422
-430.42
-400.778
-116.116
824.456
1280.21
2140.85
2540.5
2744.79
1781.85
969.148
-477.46
-1931.34
-3028.92
-4404.31
-5652.39
-6671.08
-7427.77
-8053.29
-8266.48
-8515.54
-8594.83
-8821.33
-9188.87
-9593.41
-10125.7
-10686.9
-11170.4
-11720.7
-12228.7
-12504.6
-12709.5
-12684.2
-12359.5
-11887
-11024
-10057.1
-8882.01
-7520.18
-6158.67
-4679.17
-3024.92
-1489.27
5.82902
1560.11
3819.92
6475.09
9279.66
12250
15525.5
16948.6
16757.8
14599.1
12869
10682.5
7663.72
4233.41
281.214
-4616.4
-9450.21
-14627.1
-18198.6
-21236.8
-25145.8
-25847
-23647.5
-26863.4
-23700.5
-30681.1
320.63
332.4
239.301
-445.727
-418.624
-132.147
795.198
1237.57
2080.7
2523.15
2820.51
1709.06
862.047
-724.766
-2239.3
-3329.25
-4760.16
-6053.23
-7108.95
-7869.8
-8515.19
-8690.28
-8899.23
-8944.65
-9094.93
-9484.38
-9967.87
-10519.2
-11125.5
-11857.6
-12440.1
-13012.1
-13572.7
-13852.7
-13984.2
-13861.9
-13390.1
-12748.8
-11716.2
-10625.2
-9349.4
-7921.97
-6525.59
-5014.09
-3360.98
-1913.82
-462.942
1416.15
3925.84
6260.93
9525.73
12268.4
15612
16704.1
16489
14366.3
12483.7
10149.7
6928.27
3434.45
-557.857
-5460.42
-10368.9
-15522.6
-19151.4
-22291.6
-26468.3
-27282.8
-24810.8
-27665.7
-24122.4
-31593.4
325.66
342.834
242.782
-459.202
-429.123
-144.923
769.416
1201.79
2022.88
2480.76
2782.42
1657.66
758.43
-985.318
-2568.53
-3643.77
-5127.96
-6461.33
-7550.63
-8313.08
-8987.41
-9104.2
-9292.92
-9235.87
-9387.54
-9776.51
-10238.7
-10908.9
-11551.1
-12278.8
-13126.5
-13847.6
-14459.9
-15049.8
-15309.5
-15321.6
-15045.8
-14374.8
-13536.6
-12346.2
-11138.6
-9779.13
-8295.21
-6886.45
-5346.89
-3720.63
-2463.48
-672.004
1332.28
3934.14
6175.73
9491.07
12270
15494
16328.8
16113.7
14081.5
12023.5
9547.16
6221.06
2593.84
-1416.98
-6347.32
-11345.8
-16461.1
-20070.7
-23338.5
-27798.5
-28607.4
-26063.1
-28390
-24577.8
-32213.3
330.478
345.314
246.121
-470.812
-434.209
-154.671
747.965
1170.59
1968.73
2419.5
2643.07
1616.61
656.046
-1254.27
-2914.18
-3972.04
-5506.7
-6876.23
-7998.7
-8757.02
-9454.22
-9524.12
-9692.61
-9535.34
-9594.62
-10053.4
-10552.7
-11225.4
-11978.5
-12842.1
-13655.2
-14587.6
-15461.4
-16130.3
-16689.8
-16869
-16680
-16166.8
-15249.7
-14221.9
-12889.4
-11589.5
-10158.9
-8652.06
-7235.67
-5697.13
-4151.03
-2858.98
-990.287
1356.3
3662.71
6151.65
9363.15
12156.4
15194.1
15821.7
15607.6
13593.9
11553.9
8931.16
5451.15
1743.69
-2281.83
-7241.07
-12277.3
-17382.5
-21091
-24392.4
-29135.6
-29772.7
-27413
-29053.6
-25132.1
-32502.9
333.577
341.55
249.669
-481.829
-435.174
-161.081
729.953
1143.34
1920.11
2359.3
2436.5
1573.68
553.62
-1527.95
-3269.03
-4311.78
-5896.49
-7297.04
-8448.05
-9201.19
-9925.53
-9927.58
-10092.2
-9782.75
-9798.66
-10269.1
-10786.8
-11587.9
-12352.7
-13287
-14331.9
-15281.2
-16302.2
-17312.8
-18013.7
-18481.4
-18451.8
-17962.9
-17142.8
-15997.2
-14794.3
-13354.2
-11979
-10500.5
-8994.55
-7583.32
-6043.5
-4688.4
-3265.22
-1323.56
1250.11
3361.51
5944.45
9252.48
11923.2
14692
15045.4
14915.8
13049.1
11008.9
8258.77
4699.97
852.712
-3205.04
-8171.45
-13205.1
-18380.8
-22224
-25458.8
-30469.4
-31005.1
-28863.7
-29680.4
-25861.7
-32544.9
334.692
335.78
252.359
-492.545
-433.521
-164.411
713.768
1119.13
1873.6
2327.81
2198.92
1518.6
452.797
-1805.2
-3629.76
-4658.12
-6295.27
-7726.12
-8900.65
-9643.16
-10392.2
-10337.7
-10491
-10030.7
-9926.55
-10510.1
-11021.4
-11833.1
-12722.1
-13740.6
-14804.6
-16017.2
-17171
-18319.9
-19420.2
-20115.7
-20337.6
-19938.1
-19046.9
-17930.8
-16584.2
-15244.9
-13726.2
-12312.6
-10801.6
-9338.85
-7924.83
-6422.49
-5193.77
-3481.8
-1658.52
900.053
3164.06
5694.56
9016.22
11594.6
13981.1
14027.1
14146.8
12376.5
10474.7
7561.13
3923.45
-81.8023
-4141.4
-9104.22
-14200.4
-19372.6
-23231.1
-26525.3
-31797.9
-32183.9
-30386.2
-30307
-26759.6
-32474.1
334.057
329.249
253.681
-503.121
-430.379
-165.224
698.529
1097.03
1828.78
2303.83
1960.13
1445.06
353.591
-2085.65
-3993
-5008.2
-6701.5
-8160.82
-9352.45
-10083.9
-10858
-10732.3
-10887
-10250.5
-10049.1
-10675
-11238.3
-12155
-13036.6
-14170.8
-15374
-16605.7
-18019.3
-19434.1
-20713.3
-21861
-22368.7
-22106.6
-21139.4
-19876.3
-18523.1
-17028.8
-15581.2
-14026
-12591.2
-11085.9
-9673.45
-8263.49
-6846.31
-5590.07
-3726.98
-1759.28
555.506
2774.97
5470.27
8650.31
11162.7
13095.4
12896.8
13336.6
11754.9
9858.45
6867.76
3140.08
-1056.12
-5090.93
-10086.2
-15211.6
-20255.4
-24248.8
-27569.5
-33123.8
-33362.5
-31959.2
-30936.2
-27762.8
-32385.1
332.045
322.303
254.584
-513.465
-426.188
-164.476
683.882
1076.46
1786.34
2273.86
1761.68
1361.27
253.475
-2368.51
-4357.65
-5355.32
-7111.68
-8603.67
-9804.71
-10519.8
-11318.9
-11129.9
-11269.5
-10463.1
-10131
-10850.8
-11409.1
-12364.5
-13359.7
-14542.2
-15824.5
-17267.1
-18731
-20379.3
-22061.1
-23536.7
-24533.8
-24490.8
-23440.9
-21965.5
-20440.9
-18913.3
-17319.4
-15815.9
-14243.6
-12834.4
-11357.9
-10011
-8579.25
-7175.42
-6030.18
-4012.79
-2017.76
240.36
2205.18
5182
8240.78
10648.4
12152.3
11865.2
12540.7
11095
9253.89
6116.01
2290.6
-2007.55
-6094.17
-11141.8
-16194.9
-21198
-25544
-28626.3
-34440.1
-34515.7
-33575.2
-31562.2
-28756
-32316.8
329.005
315.12
255.416
-523.389
-421.624
-162.999
669.64
1057.29
1746.06
2235.47
1630.58
1286.38
152.653
-2653.17
-4718
-5696.86
-7522.12
-9050.21
-10255.1
-10951.9
-11775.1
-11515.1
-11660.6
-10671
-10190.7
-10985.2
-11603.4
-12627.5
-13640
-14953.8
-16317.5
-17832.1
-19543.4
-21309.4
-23219.1
-25235.5
-26709
-27087.9
-25972.3
-24279.1
-22494.1
-20763.7
-19140.9
-17505.5
-15955.1
-14415.2
-13047.8
-11640
-10348.9
-8974.95
-7676.86
-6283.7
-4354.51
-2536.61
-140.709
1667.33
4854.89
7751.66
10142.8
11314.5
11199.9
11769.3
10504.4
8563.93
5381.15
1418.58
-2972.19
-7129.28
-12285.1
-17220.1
-22255.8
-26599.5
-29713.3
-35754.1
-35664.6
-35238.7
-32170
-29635.5
-32273.7
325.046
307.774
256.151
-533.255
-416.746
-160.887
655.631
1039.17
1708.89
2185.06
1543.76
1238.46
49.4111
-2938.36
-5080.11
-6030.71
-7930.99
-9502.17
-10703.1
-11377.4
-12225.1
-11898.2
-12042.3
-10855
-10242.7
-11111
-11749.6
-12825.3
-13931.9
-15291.2
-16758.3
-18399.4
-20146.6
-22185.2
-24370.4
-26725.1
-28842.4
-29679.1
-28637.4
-26727.3
-24730.9
-22707.8
-20888.9
-19211.9
-17560.7
-16040.2
-14554.9
-13255.9
-11932.9
-10708.5
-9366.92
-8295.15
-6737.75
-4737.38
-2969.93
-650.538
1119.94
4513.38
7246.02
9721.93
10699.2
10872.7
11098.8
9855.52
7866.37
4549.87
511.941
-3970.2
-8201.18
-13478.4
-18265.6
-23257.8
-27569.9
-30832.5
-37036.4
-36823.5
-36901
-32762.5
-30377
-32241.9
319.916
300.675
256.399
-543.639
-412.307
-158.298
641.933
1022.05
1673.96
2142.31
1489.08
1219.57
-55.7478
-3222.02
-5429.5
-6357.03
-8334.83
-9955.03
-11147.6
-11796
-12667.2
-12270.4
-12441
-11027.1
-10273
-11223.1
-11913.6
-13036.3
-14195.1
-15671.8
-17199.2
-18944.1
-20845.6
-22919.2
-25363.5
-28153
-30718.9
-32106.4
-31134.5
-29226.7
-27057.1
-24733.5
-22634.3
-20916.1
-19130.2
-17547.1
-16080.7
-14683.8
-13470.4
-12261.9
-11115.8
-10042
-8749.53
-7067.13
-5439.17
-3373.11
-1189.58
499.168
4164.39
6785.11
9428.11
10273.4
10660.4
10366.9
9202.59
7092.84
3733.92
-448.198
-4977.4
-9328.36
-14698.8
-19335.1
-24239.1
-28703
-31966.5
-38206.1
-37978.1
-38658.4
-33371.1
-30985.7
-32213
313.248
294.511
256.206
-554.898
-408.84
-155.318
628.376
1005.52
1640.33
2100.43
1465.72
1219.49
-156.8
-3503.84
-5787.11
-6674.29
-8731.88
-10408
-11587.2
-12206.5
-13101.3
-12636.6
-12834.5
-11177
-10321.2
-11308.3
-12049.4
-13225.3
-14465
-15994.5
-17618.1
-19440.2
-21409.4
-23701.8
-26274.9
-29345.6
-32420
-34199.4
-33161.2
-31628.6
-29340.4
-26799.7
-24388.9
-22306.6
-20769
-18978.6
-17463.6
-16105.8
-14819.5
-13726.4
-12644.5
-11599.6
-10473.3
-9244.35
-7625.03
-6115.93
-4035
-1768.65
-56.1715
3783.95
6390.98
9168.43
9893.1
10306.9
9634.88
8473.72
6288.5
2802.51
-1413.21
-6045.47
-10484.6
-15954.3
-20429.1
-25295.7
-29778.2
-33066.5
-39369.5
-39154
-40797.6
-33980.4
-31503.5
-32200.4
305.089
288.864
255.404
-566.346
-406.079
-152.231
615.116
989.491
1608.24
2054.09
1447.9
1227.3
-266.96
-3780.94
-6120.24
-6982.7
-9121.54
-10862.8
-12020.1
-12607.8
-13524.3
-12992.8
-13240
-11310.6
-10355.6
-11396.7
-12192.9
-13402.4
-14720.5
-16345.7
-18025.7
-19950.1
-21990.5
-24320.7
-27130.3
-30461.9
-33866.9
-36075.1
-34979.6
-33519.9
-31319.5
-28821
-26315.5
-23791.7
-21977.3
-20460.6
-18818.9
-17371.6
-16142
-14994.1
-14030.6
-13081.6
-12148.1
-11111.8
-9676.05
-8224.17
-6843.8
-4576.54
-2446.28
-596.816
3361.01
6004.91
8819.58
9361.68
9590.62
8786.77
7703.74
5421.6
1879.35
-2430.71
-7138.6
-11687.1
-17238.5
-21586.9
-26347.1
-30970.4
-34195.1
-40442
-40328.7
-42933.8
-34599
-31946.2
-32215.5
295.674
283.455
253.814
-577.854
-404.182
-148.689
601.866
973.901
1577.63
2005.32
1433.25
1229.4
-370.205
-4058.67