/*--------------------------------*- C++ -*----------------------------------*\
| =========                 |                                                 |
| \\      /  F ield         | OpenFOAM: The Open Source CFD Toolbox           |
|  \\    /   O peration     | Version:  2212                                  |
|   \\  /    A nd           | Website:  www.openfoam.com                      |
|    \\/     M anipulation  |                                                 |
\*---------------------------------------------------------------------------*/
FoamFile
{
    version     2.0;
    format      ascii;
    arch        "LSB;label=32;scalar=64";
    class       surfaceScalarField;
    location    "100";
    object      phi;
}
// * * * * * * * * * * * * * * * * * * * * * * * * * * * * * * * * * * * * * //

dimensions      [0 3 -1 0 0 0 0];

oriented        oriented;

internalField   nonuniform List<scalar> 
328790
(
0.0247975
26.7869
0.149525
24.6082
-0.0262699
26.8132
0.718023
21.5772
-0.152787
24.7347
-0.0462954
26.8595
2.66209
-21.4314
0.545519
20.8789
-0.335004
25.0235
-0.0925305
26.952
4.4296
-39.8679
2.98306
-23.869
0.671031
19.8728
-0.512297
25.4432
-0.121556
27.0735
5.59266
-39.6453
4.69478
-41.5797
3.11998
-26.3179
0.721336
18.6392
-0.65086
25.9725
-0.170131
27.2437
6.39801
-38.6614
5.87292
-40.8234
4.7904
-43.2501
3.3574
-28.954
0.713076
17.2753
-0.965754
26.7681
-0.227053
27.4707
6.9654
-38.738
6.63546
-39.4239
5.98058
-42.0136
5.02522
-44.9179
3.49957
-31.7405
0.632618
15.6769
-1.37999
27.9211
-0.306597
27.7773
7.2847
-38.6954
7.10358
-39.2061
6.72691
-40.1703
6.24162
-43.23
5.13085
-46.5492
3.71511
-34.823
0.425999
13.8709
-1.71803
29.3325
-0.51924
28.2966
7.30851
-42.0514
7.29017
-38.882
7.15359
-39.6328
6.95674
-40.8854
6.34669
-44.4458
5.33468
-48.1687
3.86034
-38.2573
0.368855
11.784
-2.36423
31.1775
-0.736198
29.0328
6.77196
-59.0145
7.20748
-41.9687
7.26255
-38.991
7.28028
-39.9563
7.03888
-41.5776
6.58538
-45.6965
5.45872
-49.7671
4.04979
-41.9382
0.243823
9.17597
-3.01138
33.4527
-0.808815
29.8416
5.90934
-67.7791
6.53263
-58.3397
7.1392
-41.8453
7.28599
-38.9967
7.32082
-40.2382
7.22621
-42.2184
6.69177
-46.9296
5.66616
-51.3835
4.17782
-45.8722
0.262779
5.90181
-2.91212
35.556
-0.725046
30.5666
5.07214
-66.3614
5.61288
-66.8593
6.35327
-57.5537
7.07586
-41.6352
7.29159
-38.9675
7.40349
-40.4155
7.279
-42.8056
6.90761
-48.171
5.81626
-53.0219
4.34682
-49.9563
0.787916
2.20177
-1.68617
36.5171
-0.640958
31.2076
4.39213
-61.5876
4.78101
-65.5295
5.36563
-65.8717
6.17158
-56.6495
7.00378
-41.3474
7.31242
-38.8764
7.41522
-40.5517
7.40289
-43.3009
6.99843
-49.3532
6.01033
-54.6854
4.53312
-53.7015
2.35533
-1.83973
-0.909496
36.7857
-0.669387
31.877
4.00339
-57.1968
4.1345
-60.9411
4.47409
-64.638
5.13291
-64.833
6.04124
-55.6869
6.92543
-40.9604
7.30557
-38.7668
7.43625
-40.5851
7.42173
-43.7242
7.13907
-50.4819
6.16479
-56.3171
4.80003
-56.1462
3.19701
-5.94623
-0.456007
36.5723
-0.608242
32.4852
3.80642
-53.1415
3.78645
-56.8488
3.81588
-60.2829
4.24613
-63.7512
4.92417
-63.7159
5.9174
-54.6789
6.8593
-40.5141
7.29722
-38.6277
7.41213
-40.5755
7.46914
-44.0543
7.21033
-51.5275
6.3285
-57.8456
5.00425
-57.9534
3.44341
-9.84565
-0.210185
36.1742
-0.600398
33.0856
3.65909
-48.9691
3.61199
-52.9671
3.48746
-56.5204
3.61756
-59.6543
3.99788
-62.8249
4.75184
-62.5504
5.82726
-53.6469
6.83072
-40.0476
7.26196
-38.4776
7.38104
-40.4874
7.48965
-44.3336
7.29197
-52.4909
6.41405
-59.2554
5.22367
-59.7337
3.69429
-13.7501
-0.0244167
35.5982
-0.607089
33.6927
3.47502
-44.5486
3.4761
-48.8332
3.33237
-52.812
3.30786
-56.2106
3.36383
-59.0203
3.83703
-61.9101
4.60987
-61.333
5.73239
-52.5485
6.8185
-39.6042
7.21736
-38.3139
7.35971
-40.3574
7.50615
-44.5478
7.29507
-53.372
6.52232
-60.554
5.3921
-61.4315
3.91155
-17.6861
0.130759
34.8604
-0.643744
34.3364
3.26097
-40.1507
3.30156
-44.374
3.20149
-48.7024
3.15682
-52.6609
3.07686
-55.9237
3.22248
-58.4058
3.6735
-60.9737
4.52538
-60.126
5.67579
-51.4058
6.79059
-39.1774
7.18022
-38.1344
7.32484
-40.1761
7.48228
-44.735
7.30299
-54.1526
6.5763
-61.7382
5.5554
-63.0754
4.0972
-21.6525
0.253613
33.963
-0.690831
35.0273
3.01736
-35.9682
3.10036
-39.9495
3.03033
-44.2029
3.0337
-48.5792
2.94025
-52.5243
2.94571
-55.6469
3.0503
-57.7826
3.5968
-60.0451
4.45735
-58.9075
5.65152
-50.2668
6.79476
-38.792
7.14296
-37.9525
7.28025
-39.9741
7.44266
-44.8747
7.2726
-54.8489
6.63765
-62.8205
5.6781
-64.6563
4.2562
-25.6551
0.358344
32.9139
-0.76652
35.7938
2.75139
-31.6943
2.86553
-35.7333
2.85394
-39.7731
2.86719
-44.0363
2.8066
-48.4456
2.80609
-52.3847
2.78377
-55.3804
2.97667
-57.1624
3.52064
-59.1084
4.43718
-57.6932
5.66932
-49.1413
6.78861
-38.4376
7.09282
-37.7651
7.23446
-39.7659
7.383
-44.9851
7.2641
-55.4754
6.67442
-63.8168
5.78891
-66.189
4.38223
-29.679
0.434261
31.7131
-0.832189
36.626
2.51897
-27.9797
2.61092
-31.4397
2.64638
-35.5258
2.69715
-39.6031
2.63582
-43.8656
2.67142
-48.3109
2.65978
-52.2607
2.70798
-55.1117
2.88516
-56.5269
3.50595
-58.1772
4.45834
-56.4822
5.69346
-48.0462
6.78337
-38.1281
7.02429
-37.5549
7.20249
-39.5854
7.33846
-45.0594
7.23821
-56.0392
6.71661
-64.7445
5.86698
-67.6737
4.48094
-33.7257
0.510007
30.3709
-0.90658
37.5326
2.3741
-24.8497
2.3978
-27.7666
2.42208
-31.2154
2.49898
-35.3276
2.4778
-39.4451
2.49731
-43.6915
2.51342
-48.1646
2.58591
-52.1386
2.61668
-54.8432
2.86183
-55.8828
3.5211
-57.2399
4.50244
-55.2912
5.73906
-47.0019
6.7635
-37.8674
7.04505
-37.3975
7.17593
-39.4229
7.31028
-45.1315
7.26426
-56.5868
6.76694
-65.6444
5.94563
-69.1384
4.55933
-37.775
0.579156
28.8851
-0.96009
38.4927
2.30224
-22.4953
2.27797
-24.7298
2.24247
-27.587
2.29405
-31.0105
2.29888
-35.1487
2.33208
-39.2798
2.32453
-43.5026
2.43254
-48.0112
2.5048
-52.0267
2.58277
-54.5641
2.85101
-55.2127
3.56937
-56.3069
4.57667
-54.1288
5.79311
-46.0315
6.83054
-37.6529
7.04808
-37.2696
7.20526
-39.3179
7.37814
-45.2454
7.26702
-57.0869
6.83659
-66.5354
6.01202
-70.5911
4.6128
-41.8086
0.656401
27.2686
-1.03436
39.527
2.27146
-20.4167
2.22913
-22.4465
2.15538
-24.6428
2.13907
-27.432
2.12186
-30.8335
2.15747
-34.9741
2.15125
-39.1066
2.22377
-43.2938
2.343
-47.8494
2.47279
-51.9168
2.5534
-54.2665
2.88172
-54.5251
3.64372
-55.3739
4.65924
-52.9949
5.8897
-45.0906
6.85185
-37.4566
7.09218
-37.1566
7.23735
-39.1771
7.38368
-45.362
7.29833
-57.5486
6.93176
-67.4551
6.09045
-72.0688
4.66533
-45.8176
0.720595
25.5137
-1.07663
40.6036
2.22151
-18.2405
2.21014
-20.3977
2.13314
-22.4243
2.07267
-24.5763
1.99635
-27.3065
1.99739
-30.6734
1.98029
-34.8031
2.02153
-38.9043
2.10504
-43.0558
2.3
-47.6766
2.45036
-51.8137
2.56136
-53.9462
2.9305
-53.8119
3.73124
-54.4459
4.78426
-51.8895
5.95806
-44.1968
6.90639
-37.2708
7.09446
-37.0137
7.25983
-39.0532
7.42263
-45.4863
7.38559
-58.0025
7.04223
-68.4069
6.17049
-73.5739
4.72865
-49.8256
0.827754
23.6093
-1.17566
41.7793
2.12505
-16.3127
2.15978
-18.1901
2.12518
-20.3897
2.063
-22.4146
1.95482
-24.5348
1.89296
-27.202
1.83704
-30.5301
1.84361
-34.6252
1.87181
-38.6711
2.02166
-42.7775
2.26472
-47.491
2.45478
-51.7071
2.57887
-53.5945
3.00316
-53.0838
3.85698
-53.5186
4.87979
-50.8112
6.06617
-43.3566
6.91566
-37.092
7.13414
-36.888
7.30171
-38.9323
7.51146
-45.6122
7.47621
-58.4365
7.16936
-69.4058
6.29256
-75.1378
4.81307
-53.8109
0.895538
21.5381
-1.2861
43.0654
2.04244
-14.5787
2.05884
-16.2118
2.07483
-18.1398
2.06186
-20.3886
1.95896
-22.4187
1.86888
-24.5107
1.75751
-27.1225
1.71425
-30.4008
1.68468
-34.4381
1.74443
-38.3939
1.94445
-42.4572
2.24424
-47.2804
2.46224
-51.5905
2.61431
-53.2057
3.1052
-52.332
3.95928
-52.5981
5.02212
-49.7672
6.12058
-42.5615
6.97956
-36.9375
7.16975
-36.756
7.3992
-38.82
7.58671
-45.7227
7.59983
-58.8669
7.32486
-70.4381
6.42233
-76.7471
4.90785
-57.8232
0.924605
19.3274
-1.44036
44.5058
2.00738
-13.059
2.00757
-14.5274
1.98921
-16.1262
2.02659
-18.1045
1.96394
-20.3936
1.88098
-22.4308
1.75189
-24.5051
1.65226
-27.0605
1.56179
-30.2779
1.5372
-34.2308
1.61928
-38.0687
1.86761
-42.0806
2.22382
-47.042
2.46793
-51.4441
2.66447
-52.765
3.19684
-51.5696
4.10462
-51.6806
5.10775
-48.7543
6.23492
-41.8169
7.00665
-36.7744
7.26542
-36.6222
7.4632
-38.6965
7.69274
-45.8156
7.73749
-59.2795
7.47923
-71.495
6.57007
-78.4093
5.02928
-61.9279
0.95906
16.928
-1.55263
46.0584
1.95125
-11.8548
1.98339
-13.0349
1.98167
-14.5198
1.96649
-16.0661
1.94508
-18.0857
1.89084
-20.4034
1.77369
-22.4527
1.65741
-24.5103
1.51364
-27.0124
1.41854
-30.1592
1.38571
-33.9973
1.48785
-37.6889
1.79297
-41.6497
2.18043
-46.7545
2.47403
-51.2537
2.69955
-52.2677
3.32055
-50.7855
4.19652
-50.7694
5.25187
-47.7713
6.27789
-41.0881
7.09169
-36.6006
7.3142
-36.4732
7.56063
-38.5644
7.79721
-45.8753
7.87766
-59.678
7.62346
-72.5484
6.72967
-80.1097
5.15637
-66.1252
1.07438
14.301
-1.63812
47.6965
1.92608
-10.5902
1.94149
-11.8129
1.9695
-13.0227
1.96283
-14.5162
1.92585
-16.0468
1.88569
-18.0805
1.7874
-20.4171
1.68348
-22.4787
1.53351
-24.5301
1.38476
-26.9786
1.26724
-30.0408
1.22661
-33.736
1.3611
-37.2571
1.68498
-41.1543
2.13538
-46.4159
2.43973
-50.9939
2.7489
-51.696
3.40221
-49.9912
4.33689
-49.8544
5.31534
-46.8087
6.3925
-40.3889
7.10995
-36.3964
7.40463
-36.3172
7.64614
-38.4134
7.90585
-45.9035
7.99131
-60.0458
7.76205
-73.5807
6.89744
-81.8508
5.28362
-70.3345
1.30195
11.3609
-1.61263
49.3092
1.87676
-9.49215
1.92435
-10.5731
1.94624
-11.7897
1.95281
-13.0127
1.93515
-14.5255
1.8845
-16.0456
1.78634
-18.0795
1.69765
-20.4313
1.56934
-22.5146
1.41941
-24.5648
1.24591
-26.9573
1.10508
-29.9192
1.06283
-33.4378
1.20361
-36.7757
1.58292
-40.6018
2.02428
-46.0004
2.40361
-50.6486
2.75766
-51.0515
3.51834
-49.1726
4.3977
-48.9368
5.4552
-45.8714
6.41544
-39.6944
7.18262
-36.1744
7.47169
-36.1428
7.73838
-38.2459
7.98129
-45.8935
8.09744
-60.3812
7.8898
-74.5731
7.0496
-83.6168
5.41555
-74.4481
1.70357
8.04469
-1.34843
50.6576
1.84421
-8.52152
1.88381
-9.45162
1.92152
-10.5483
1.93979
-11.7767
1.92166
-12.9992
1.90528
-14.5463
1.80397
-16.0633
1.70799
-18.0898
1.58543
-20.4474
1.46001
-22.5551
1.29186
-24.6107
1.09311
-26.9453
0.936135
-29.7925
0.877224
-33.1114
1.05953
-36.2523
1.41042
-39.988
1.91317
-45.51
2.30101
-50.1919
2.7845
-50.3176
3.56395
-48.3389
4.52094
-48.0025
5.49012
-44.9461
6.51058
-39.0224
7.20968
-35.9124
7.55749
-35.9619
7.79961
-38.0642
8.0596
-45.8556
8.18155
-60.673
7.99522
-75.5187
7.20653
-85.4077
5.56026
-78.3048
2.37247
4.32379
-0.829893
51.4875
1.80881
-7.74624
1.86727
-8.50498
1.9136
-9.4437
1.92087
-10.5294
1.93182
-11.7868
1.92758
-13.0215
1.86786
-14.6102
1.7359
-16.0912
1.60817
-18.1125
1.4793
-20.4667
1.33893
-22.6022
1.1561
-24.6737
0.936134
-26.9453
0.746635
-29.6619
0.699598
-32.7515
0.858444
-35.7003
1.25186
-39.3267
1.70976
-44.9187
2.1998
-49.6072
2.75116
-49.5049
3.65489
-47.4728
4.53542
-47.0478
5.60173
-44.0373
6.54265
-38.3554
7.28444
-35.6393
7.61166
-35.7739
7.87575
-37.8804
8.11778
-45.7919
8.24624
-60.924
8.10583
-76.418
7.3583
-87.2058
5.71054
-81.6428
3.04208
0.451819
-0.616443
52.1039
1.75348
-6.91283
1.84668
-7.72565
1.93624
-8.52762
1.93882
-9.46166
1.93648
-10.5341
1.94687
-11.8061
1.92378
-13.0774
1.82453
-14.6988
1.6531
-16.1361
1.52205
-18.1553
1.36743
-20.4952
1.21475
-22.6609
1.01156
-24.7492
0.759234
-26.9579
0.563737
-29.5261
0.480918
-32.3739
0.679991
-35.1284
1.00118
-38.6181
1.51553
-44.2344
2.01776
-48.8738
2.74896
-48.5989
3.6455
-46.5829
4.61734
-46.0634
5.63698
-43.1316
6.63996
-37.7109
7.31434
-35.342
7.69057
-35.5888
7.9408
-37.7034
8.17201
-45.7176
8.31014
-61.1283
8.21552
-77.2752
7.50219
-88.9974
5.85958
-84.4603
3.50352
-3.66815
-0.587203
52.6911
1.70246
-6.16168
1.79366
-6.8598
1.93202
-7.72143
1.97979
-8.56859
1.98452
-9.5097
1.96016
-10.5474
1.96807
-11.8504
1.93961
-13.1925
1.76876
-14.8144
1.59491
-16.209
1.43157
-18.2194
1.25386
-20.5343
1.07749
-22.7268
0.852712
-24.8426
0.58352
-26.9777
0.343997
-29.3892
0.281754
-31.9757
0.425156
-34.5524
0.780505
-37.8831
1.22189
-43.4386
1.84953
-47.9744
2.6662
-47.6196
3.689
-45.6546
4.6085
-45.0349
5.73276
-42.2244
6.68487
-37.0814
7.39529
-35.0467
7.7642
-35.4122
8.01687
-37.5482
8.22776
-45.6353
8.38816
-61.3009
8.31834
-78.0914
7.63244
-90.7703
6.00622
-86.963
3.71778
-7.97313
-0.578581
53.2697
1.64482
-5.50842
1.7486
-6.11662
1.87555
-6.80333
1.96225
-7.70389
2.03159
-8.61567
2.02896
-9.5785
2.03023
-10.6095
2.00731
-11.9181
1.94979
-13.3735
1.74627
-14.9658
1.54231
-16.3197
1.34078
-18.3063
1.12982
-20.5866
0.932007
-22.8061
0.687737
-24.9469
0.379432
-27.0131
0.139979
-29.2474
0.0278245
-31.5784
0.207186
-33.9791
0.466086
-37.1273
0.956949
-42.546
1.59569
-46.9039
2.61729
-46.5479
3.63758
-44.6837
4.6589
-43.9611
5.77636
-41.3159
6.78297
-36.4691
7.46817
-34.7507
7.85438
-35.2497
8.09835
-37.4188
8.31149
-45.5586
8.45903
-61.4416
8.41184
-78.8708
7.76291
-92.527
6.15224
-89.3975
3.73333
-12.285
-0.657065
53.9268
1.58297
-4.84344
1.69326
-5.45308
1.83085
-6.07192
1.8974
-6.73848
1.99612
-7.66842
2.06459
-8.65129
2.09538
-9.64365
2.1062
-10.7084
2.07756
-12.0459
1.95584
-13.5831
1.72719
-15.1507
1.48746
-16.4664
1.2451
-18.4216
1.00334
-20.658
0.77909
-22.8974
0.502253
-25.0697
0.179488
-27.0526
-0.106408
-29.1132
-0.194774
-31.1764
-0.0967738
-33.4162
0.199076
-36.3694
0.60316
-41.5535
1.3764
-45.663
2.47826
-45.3886
3.6375
-43.6623
4.6434
-42.8281
5.85321
-40.3861
6.87883
-35.8798
7.56871
-34.465
7.95441
-35.1057
8.21457
-37.3219
8.38841
-45.488
8.54
-61.5698
8.50948
-79.6174
7.89524
-94.27
6.28583
-91.95
3.76561
-16.7077
-0.766636
54.6934
1.5454
-4.31909
1.6358
-4.78597
1.77873
-5.40097
1.85112
-6.02564
1.93275
-6.67511
1.99571
-7.59954
2.09944
-8.65536
2.15584
-9.69329
2.17516
-10.806
2.11119
-12.2012
1.95213
-13.8081
1.69
-15.3532
1.41906
-16.6403
1.14836
-18.5666
0.873869
-20.7527
0.610155
-23.0053
0.313709
-25.2039
-0.0501439
-27.1089
-0.333853
-28.9741
-0.485882
-30.7873
-0.352845
-32.8643
-0.1544
-35.6119
0.300464
-40.4775
1.09288
-44.2776
2.37989
-44.131
3.55464
-42.5735
4.66362
-41.6385
5.94754
-39.4548
6.98032
-35.2914
7.68188
-34.1925
8.09158
-34.9827
8.32132
-37.2548
8.48544
-45.4334
8.62472
-61.685
8.61627
-80.3384
8.01833
-96.0025
6.41406
-94.5984
3.79679
-21.2711
-0.873258
55.5667
1.50858
-3.88753
1.61919
-4.30248
1.73594
-4.74318
1.80636
-5.35621
1.89605
-5.98894
1.93431
-6.6137
2.0177
-7.5178
2.13303
-8.63255
2.21374
-9.73187
2.21149
-10.9063
2.12333
-12.3724
1.93228
-14.0503
1.64216
-15.5763
1.34853
-16.8405
1.04538
-18.7381
0.728147
-20.8707
0.4373
-23.1289
0.0988946
-25.3529
-0.276116
-27.1666
-0.611285
-28.8487
-0.738608
-30.4015
-0.693038
-32.3257
-0.460574
-34.8508
-0.063193
-39.3215
0.848871
-42.7466
2.20656
-42.7829
3.51213
-41.422
4.68999
-40.381
6.00913
-38.4836
7.12385
-34.7333
7.83254
-33.9334
8.22516
-34.8866
8.45282
-37.2222
8.58229
-45.391
8.73298
-61.8018
8.71316
-81.0332
8.14954
-97.7379
6.52856
-97.3302
3.8255
-25.9699
-0.987511
56.5542
1.48321
-3.48203
1.5885
-3.85684
1.73065
-4.29719
1.77878
-4.7156
1.85868
-5.31884
1.90852
-5.96316
1.98524
-6.58125
2.05791
-7.44268
2.14896
-8.56776
2.25361
-9.77399
2.23557
-11.0185
2.13473
-12.5749
1.91105
-14.3192
1.59326
-15.8211
1.2578
-17.0529
0.923801
-18.9338
0.578681
-21.0121
0.241095
-23.2711
-0.114734
-25.5143
-0.535888
-27.242
-0.868788
-28.7185
-1.06411
-30.0305
-0.991116
-31.7951
-0.841859
-34.0721
-0.398955
-38.0736
0.53758
-41.0776
2.06147
-41.3323
3.44138
-40.1734
4.68826
-39.0601
6.16117
-37.521
7.26407
-34.1649
7.98514
-33.6934
8.3848
-34.8186
8.58172
-37.2216
8.70907
-45.3671
8.82808
-61.9167
8.83248
-81.7162
8.27183
-99.4812
6.63498
-100.14
3.86154
-30.8189
-1.07601
57.6302
1.46473
-3.12994
1.57437
-3.4679
1.69047
-3.81666
1.77627
-4.29468
1.82506
-4.68197
1.88069
-5.29101
1.98324
-5.96116
2.07274
-6.59608
2.11917
-7.4129
2.20132
-8.51547
2.27221
-9.81064
2.26136
-11.1452
2.12458
-12.7884
1.87211
-14.5981
1.52063
-16.0839
1.15423
-17.2834
0.797053
-19.1522
0.407195
-21.1782
0.0482002
-23.4341
-0.360516
-25.6897
-0.793732
-27.3171
-1.17979
-28.6028
-1.34984
-29.6717
-1.3646
-31.2724
-1.20266
-33.2684
-0.799196
-36.7368
0.229359
-39.2455
1.85331
-39.7442
3.35813
-38.8433
4.77705
-37.676
6.24063
-36.4975
7.45202
-33.6318
8.15909
-33.4677
8.55077
-34.7876
8.75201
-37.2646
8.81861
-45.3576
8.943
-62.0272
8.94187
-82.3862
8.38868
-101.235
6.74782
-103.026
3.88767
-35.7826
-1.1127
58.7429
1.43245
-2.75337
1.55541
-3.11098
1.65778
-3.43521
1.73698
-3.77737
1.783
-4.25262
1.86052
-4.66181
1.96755
-5.27532
2.10823
-5.99665
2.2089
-6.6858
2.25777
-7.46934
2.28286
-8.52612
2.3084
-9.85768
2.262
-11.2826
2.09521
-13.0115
1.81097
-14.8884
1.44486
-16.3745
1.04489
-17.5312
0.644765
-19.3897
0.233345
-21.3634
-0.175134
-23.6194
-0.609014
-25.8744
-1.09036
-27.4065
-1.47021
-28.4824
-1.70407
-29.3323
-1.71597
-30.7591
-1.6189
-32.4487
-1.20994
-35.2975
-0.143837
-37.2484
1.61223
-37.9983
3.31035
-37.3766
4.78365
-36.219
6.44442
-35.4899
7.62073
-33.0934
8.34851
-33.2654
8.75917
-34.7948
8.90861
-37.3546
8.9518
-45.3664
9.03551
-62.1208
9.05149
-83.049
8.51978
-103.007
6.84318
-105.981
3.91894
-40.8143
-1.10484
59.8477
1.41518
-2.45919
1.51948
-2.71744
1.59116
-3.04436
1.69122
-3.38945
1.75121
-3.74558
1.81292
-4.20502
1.98003
-4.6743
2.13112
-5.2982
2.29591
-6.08365
2.41057
-6.83861
2.43468
-7.62116
2.40699
-8.62471
2.33227
-9.92795
2.24955
-11.4369
2.04971
-13.2503
1.75266
-15.1962
1.36
-16.6896
0.914932
-17.8014
0.491529
-19.6479
0.0341435
-21.5726
-0.395319
-23.8331
-0.890288
-26.0745
-1.3832
-27.4935
-1.81009
-28.3764
-2.0342
-29.014
-2.11736
-30.2606
-2.04426
-31.6144
-1.66666
-33.7747
-0.561512
-35.0746
1.33087
-36.0188
3.18915
-35.7821
4.94508
-34.7197
6.54295
-34.4121
7.8392
-32.5841
8.56971
-33.076
8.96567
-34.8518
9.10932
-37.5121
9.06553
-45.3964
9.13165
-62.201
9.17497
-83.7042
8.6339
-104.798
6.93555
-108.998
3.96318
-45.8823
-1.05255
60.9003
1.40114
-2.26185
1.51849
-2.45821
1.58193
-2.7082
1.61735
-2.97049
1.68918
-3.32742
1.78444
-3.71711
1.975
-4.19999
2.17972
-4.7229
2.3602
-5.36249
2.52981
-6.20289
2.63851
-7.04244
2.62805
-7.84221
2.52074
-8.81317
2.39548
-10.0739
2.23801
-11.6252
2.01376
-13.5113
1.67541
-15.5116
1.2526
-17.0273
0.785335
-18.0952
0.306487
-19.9203
-0.161343
-21.8066
-0.64845
-24.075
-1.17167
-26.286
-1.71964
-27.584
-2.14159
-28.269
-2.40995
-28.7215
-2.52611
-29.7788
-2.5091
-30.772
-2.15795
-32.1783
-1.02795
-32.7158
0.944477
-33.7742
3.15791
-33.9949
4.96983
-33.1465
6.77815
-33.3511
8.05262
-32.067
8.79879
-32.9091
9.22093
-34.9634
9.30905
-37.7556
9.20454
-45.4693
9.24185
-62.2679
9.28591
-84.3562
8.74827
-106.61
7.04303
-112.078
3.99632
-50.9311
-0.971415
61.8717
1.3691
-2.02664
1.5138
-2.25716
1.59068
-2.46696
1.61407
-2.70492
1.63797
-2.91928
1.71883
-3.2618
1.9434
-3.6855
2.18313
-4.2034
2.43089
-4.79359
2.63322
-5.4659
2.78726
-6.35164
2.86438
-7.27878
2.80838
-8.12986
2.64589
-9.06358
2.45245
-10.2883
2.2386
-11.8501
1.94822
-13.7842
1.57936
-15.8384
1.13918
-17.3812
0.628425
-18.4171
0.126133
-20.2077
-0.391436
-22.0636
-0.903262
-24.3434
-1.49005
-26.5156
-2.05629
-27.6693
-2.50008
-28.1789
-2.79017
-28.4574
-2.96982
-29.3181
-3.00532
-29.9246
-2.67311
-30.5331
-1.58887
-30.1824
0.5599
-31.1762
2.98475
-32.0098
5.20054
-31.5689
6.93676
-32.2352
8.29865
-31.5669
9.06015
-32.7483
9.48755
-35.1419
9.54264
-38.0937
9.38385
-45.6113
9.35238
-62.3344
9.39728
-85.0052
8.88538
-108.453
7.1155
-115.197
4.04374
-55.9463
-0.863512
62.7352
1.32896
-1.81009
1.47381
-1.98665
1.52628
-2.19275
1.56251
-2.4154
1.56314
-2.63009
1.66287
-2.86332
1.88715
-3.20555
2.14406
-3.64643
2.43733
-4.20984
2.71602
-4.87639
2.93285
-5.61148
3.03266
-6.51992
3.05984
-7.53023
2.95669
-8.44066
2.74684
-9.35796
2.4819
-10.5316
2.19839
-12.1002
1.87397
-14.0788
1.47568
-16.1749
1.00344
-17.7562
0.470141
-18.7611
-0.0860869
-20.5131
-0.614338
-22.3525
-1.1886
-24.6448
-1.81383
-26.7581
-2.41925
-27.7501
-2.86976
-28.0993
-3.19817
-28.229
-3.44023
-28.8831
-3.52515
-29.0726
-3.25656
-28.8654
-2.14499
-27.4776
0.0288408
-28.2202
2.97907
-29.7883
5.29117
-29.9234
7.20214
-31.1387
8.55882
-31.0655
9.33839
-32.5991
9.77656
-35.3759
9.81294
-38.5228
9.60535
-45.8643
9.48524
-62.4223
9.54673
-85.6666
8.9817
-110.319
7.20475
-118.358
4.09883
-60.9086
-0.7318
63.467
1.28821
-1.65134
1.42818
-1.76446
1.46054
-1.92091
1.47499
-2.10523
1.45828
-2.31053
1.56482
-2.53205
1.82298
-2.79915
2.08364
-3.14513
2.40214
-3.61125
2.72653
-4.22035
3.02326
-4.9668
3.19827
-5.77709
3.24329
-6.70337
3.22573
-7.79927
3.08685
-8.78068
2.82471
-9.70078
2.49727
-10.8305
2.1636
-12.3899
1.79229
-14.3954
1.3524
-16.5238
0.852642
-18.1387
0.283176
-19.1304
-0.295003
-20.8324
-0.877497
-22.6636
-1.48563
-24.973
-2.16535
-27.012
-2.79001
-27.8298
-3.25088
-28.0466
-3.6283
-28.041
-3.93463
-28.4737
-4.10753
-28.2216
-3.82525
-27.1852
-2.7945
-24.6542
-0.371085
-24.8701
2.82078
-27.3179
5.56905
-28.2903
7.43054
-30.0104
8.84866
-30.5758
9.6261
-32.4487
10.0895
-35.6524
10.0964
-39.0139
9.85097
-46.23
9.67435
-62.5499
9.65783
-86.3427
9.10051
-112.215
7.29228
-121.552
4.15166
-65.7921
-0.584341
64.0514
1.24573
-1.53657
1.39189
-1.61505
1.42732
-1.73124
1.42611
-1.87203
1.40327
-2.05023
1.48882
-2.23454
1.73979
-2.44886
2.00765
-2.72316
2.35981
-3.1028
2.72357
-3.60829
3.0669
-4.264
3.29688
-5.06541
3.41907
-5.95287
3.41629
-6.89394
3.36609
-8.07851
3.20416
-9.16013
2.89736
-10.1009
2.51416
-11.1811
2.11163
-12.7092
1.68658
-14.7295
1.21051
-16.8817
0.683183
-18.5387
0.0858425
-19.5112
-0.530916
-21.179
-1.1385
-23.0108
-1.80695
-25.3314
-2.52825
-27.2737
-3.17727
-27.9034
-3.6483
-28.0266
-4.07944
-27.8962
-4.48226
-28.0989
-4.69022
-27.3566
-4.45662
-25.523
-3.32944
-21.6959
-0.867237
-21.1821
2.93204
-24.6809
5.70598
-26.5657
7.73232
-28.8941
9.11576
-30.0655
9.94165
-32.3008
10.3626
-35.9186
10.3786
-39.5415
10.1543
-46.71
9.84711
-62.7392
9.81529
-87.0575
9.22117
-114.144
7.3639
-124.764
4.2196
-70.596
-0.422634
64.474
1.20455
-1.44484
1.35872
-1.5034
1.40713
-1.59487
1.41551
-1.72063
1.38565
-1.85441
1.42087
-1.98227
1.64783
-2.14258
1.92215
-2.36336
2.31186
-2.6752
2.71898
-3.09821
3.10924
-3.65062
3.37
-4.33712
3.53321
-5.17955
3.61472
-6.15129
3.57456
-7.10241
3.47786
-8.35221
3.27537
-9.53814
2.94281
-10.5295
2.49556
-11.565
2.03625
-13.0589
1.56779
-15.0868
1.05851
-17.257
0.49297
-18.9458
-0.132111
-19.91
-0.775769
-21.5417
-1.4336
-23.3841
-2.1469
-25.7128
-2.9144
-27.5366
-3.56394
-27.9878
-4.05676
-28.0493
-4.57692
-27.8015
-5.03952
-27.7496
-5.33147
-26.4818
-5.02931
-23.8232
-3.91542
-18.6477
-1.0197
-17.2303
2.9199
-21.8949
5.99104
-24.8244
7.99268
-27.771
9.41542
-29.5393
10.2267
-32.1649
10.6235
-36.1634
10.7076
-40.0948
10.434
-47.2968
10.0867
-63.0106
9.98526
-87.8216
9.32326
-116.103
7.44587
-127.99
4.28896
-75.3076
-0.251582
64.7256
1.16578
-1.38885
1.32432
-1.41045
1.39753
-1.4938
1.41098
-1.59035
1.35946
-1.69444
1.34232
-1.77585
1.54412
-1.87857
1.82636
-2.04679
2.25247
-2.30397
2.69561
-2.65184
3.14073
-3.1297
3.45514
-3.73577
3.66137
-4.46528
3.76538
-5.33022
3.79657
-6.3733
3.71167
-7.33622
3.54053
-8.61737
3.31626
-9.91159
2.94557
-10.9795
2.45376
-11.9825
1.9476
-13.4387
1.42838
-15.4567
0.878516
-17.6426
0.288389
-19.3663
-0.368491
-20.3173
-1.03716
-21.9382
-1.74063
-23.7904
-2.51059
-26.1166
-3.30367
-27.7969
-3.96417
-28.0804
-4.4945
-28.1317
-5.09032
-27.7507
-5.64488
-27.4362
-5.9496
-25.5615
-5.63313
-22.1055
-4.23434
-15.433
-1.17394
-13.1365
3.305
-19.2088
6.14306
-22.9748
8.31863
-26.6742
9.6618
-28.9744
10.4979
-32.0394
10.9133
-36.3692
10.9792
-40.64
10.7546
-47.9647
10.3473
-63.3727
10.1593
-88.6576
9.4464
-118.103
7.51465
-131.216
4.38165
-79.9409
-0.0692533
64.7948
1.13758
-1.37443
1.2926
-1.35713
1.38875
-1.40167
1.40789
-1.4907
1.32667
-1.55757
1.24253
-1.59466
1.42095
-1.65268
1.71392
-1.76613
2.16868
-1.963
2.64142
-2.24978
3.15072
-2.66182
3.53253
-3.20709
3.79475
-3.86914
3.94825
-4.64815
3.97312
-5.50677
3.93555
-6.59717
3.79746
-7.59315
3.57328
-8.87439
3.31921
-10.2852
2.92228
-11.448
2.39963
-12.4345
1.83493
-13.8453
1.26604
-15.8442
0.694002
-18.0482
0.0644941
-19.7993
-0.6186
-20.7359
-1.32127
-22.3575
-2.07316
-24.2278
-2.88845
-26.5318
-3.7086
-28.0524
-4.36877
-28.2061
-4.94505
-28.277
-5.64619
-27.7494
-6.24994
-27.1359
-6.58368
-24.6109
-6.08661
-20.2532
-4.51909
-12.0879
-0.710035
-9.12148
3.54674
-16.6125
6.41304
-21.0692
8.57755
-25.59
9.91153
-28.388
10.7761
-31.9021
11.1253
-36.5153
11.2677
-41.1531
11.0815
-48.6989
10.6264
-63.8398
10.3625
-89.5737
9.55243
-120.141
7.60734
-134.441
4.46527
-84.4754
0.135016
64.6598
1.11926
-1.35589
1.26185
-1.34368
1.37889
-1.34726
1.40615
-1.39994
1.27183
-1.43585
1.11759
-1.43263
1.28855
-1.46225
1.57894
-1.5177
2.05942
-1.65687
2.56457
-1.88616
3.144
-2.24306
3.59189
-2.72118
3.92913
-3.34147
4.12559
-4.04649
4.18421
-4.85924
4.13649
-5.7077
4.03127
-6.83099
3.85361
-7.87348
3.58405
-9.13923
3.28844
-10.6514
2.87336
-11.9218
2.31149
-12.9111
1.70226
-14.2815
1.0949
-16.2451
0.481413
-18.4651
-0.178506
-20.2394
-0.889431
-21.1677
-1.61733
-22.8134
-2.42675
-24.6895
-3.28296
-26.9575
-4.12151
-28.2997
-4.78482
-28.3664
-5.42436
-28.4988
-6.22151
-27.7778
-6.87454
-26.845
-7.10815
-23.5894
-6.45643
-18.3158
-4.35233
-8.44559
-0.106564
-5.46818
4.22216
-14.4216
6.58494
-19.0766
8.83247
-24.5109
10.1517
-27.7636
10.958
-31.7349
11.3382
-36.5858
11.5297
-41.6012
11.3743
-49.4469
10.9263
-64.4036
10.5657
-90.587
9.69999
-122.234
7.66926
-137.645
4.58089
-88.9213
0.348885
64.3109
1.1079
-1.34114
1.24893
-1.34297
1.35832
-1.32311
1.40976
-1.35087
1.23246
-1.36056
0.975507
-1.29377
1.14953
-1.29361
1.41487
-1.29819
1.92645
-1.38473
2.46979
-1.56209
3.12589
-1.86805
3.64542
-2.29659
4.04815
-2.8402
4.29217
-3.50805
4.38538
-4.24765
4.39247
-5.11522
4.28197
-5.95841
4.10781
-7.08518
3.87031
-8.15973
3.56045
-9.41123
3.23155
-11.0096
2.78208
-12.3924
2.20651
-13.4153
1.56202
-14.7486
0.897368
-16.6611
0.254385
-18.898
-0.439405
-20.6894
-1.1758
-21.6092
-1.94153
-23.2986
-2.79654
-25.176
-3.69658
-27.3824
-4.53087
-28.5536
-5.20769
-28.583
-5.9331
-28.7872
-6.82237
-27.83
-7.42145
-26.5317
-7.48138
-22.5645
-6.55986
-16.1083
-3.94099
-4.61117
1.40322
-2.64924
4.47194
-12.3086
6.86225
-17.1064
9.00082
-23.36
10.3121
-27.1177
11.1161
-31.5127
11.5004
-36.5565
11.7221
-41.949
11.6613
-50.1819
11.2151
-65.0531
10.8104
-91.6974
9.79913
-124.364
7.77025
-140.835
4.68896
-93.2613
0.542872
63.7681
1.10429
-1.27121
1.26592
-1.35813
1.34756
-1.33221
1.42527
-1.33862
1.1968
-1.31521
0.813927
-1.19898
0.997807
-1.14204
1.23488
-1.11361
1.77776
-1.14949
2.36355
-1.2785
3.1077
-1.5439
3.69066
-1.91328
4.15532
-2.40376
4.44316
-2.99119
4.56495
-3.68762
4.58512
-4.44031
4.52501
-5.35826
4.36314
-6.21374
4.12153
-7.33641
3.8484
-8.44769
3.50131
-9.68099
3.12446
-11.352
2.65979
-12.8456
2.07184
-13.9252
1.38522
-15.2365
0.68466
-17.0913
0.00723576
-19.3446
-0.72375
-21.1415
-1.47469
-22.0761
-2.28189
-23.8132
-3.1952
-25.6773
-4.10743
-27.8058
-4.94138
-28.8199
-5.64987
-28.8663
-6.48124
-29.1283
-7.37353
-27.8779
-7.82966
-26.1834
-7.58413
-21.5402
-6.47919
-13.5701
-2.69946
-0.508488
2.61345
-0.790745
5.02233
-10.4687
7.14407
-15.2496
9.09259
-22.1405
10.4382
-26.4399
11.2132
-31.2254
11.5946
-36.4291
11.8952
-42.1829
11.8977
-50.8645
11.5196
-65.7622
11.0067
-92.905
9.95523
-126.549
7.84657
-143.992
4.82911
-97.5476
0.699608
63.0684
1.0983
-1.17148
1.30886
-1.31415
1.37184
-1.38241
1.44889
-1.35583
1.17922
-1.32104
0.649585
-1.15087
0.819323
-1.0205
1.05251
-0.959671
1.61205
-0.947905
2.25033
-1.03627
3.08785
-1.25865
3.71919
-1.57243
4.25507
-2.01304
4.59383
-2.55443
4.74633
-3.17257
4.79616
-3.89866
4.75279
-4.66808
4.64985
-5.64497
4.44817
-6.54038
4.16567
-7.65367
3.82934
-8.77572
3.42884
-9.98538
2.99642
-11.6886
2.512
-13.2858
1.89711
-14.437
1.19384
-15.7456
0.452271
-17.5364
-0.259705
-19.8087
-1.02089
-21.5953
-1.79591
-22.5621
-2.65187
-24.3566
-3.59918
-26.1856
-4.52399
-28.2232
-5.34872
-29.1211
-6.13309
-29.2144
-7.02202
-29.4799
-7.82932
-27.8783
-7.92947
-25.8381
-7.51482
-20.5046
-6.11882
-10.1508
-0.98056
3.08552
3.8217
0.409885
5.2834
-8.60803
7.39626
-13.5533
9.12392
-20.8261
10.4858
-25.7126
11.246
-30.8768
11.672
-36.2058
12.0154
-42.3006
12.1621
-51.507
11.7608
-66.5162
11.2595
-94.2093
10.0624
-128.764
7.96721
-147.131
4.97325
-101.821
0.823855
62.2446
1.09022
-1.05946
1.35246
-1.21507
1.42377
-1.36609
1.4859
-1.41942
1.19055
-1.36716
0.481511
-1.15296
0.613353
-0.9449
0.861705
-0.829696
1.42924
-0.776864
2.13139
-0.828964
3.05554
-1.00395
3.73516
-1.27462
4.33999
-1.65735
4.73112
-2.15032
4.93501
-2.74311
5.03116
-3.40757
5.04683
-4.1927
4.97151
-4.98974
4.81397
-6.01078
4.57262
-6.94733
4.21737
-8.04169
3.7982
-9.14507
3.33423
-10.3232
2.84973
-12.0263
2.34474
-13.7334
1.71205
-14.9552
0.972976
-16.2663
0.204199
-18.0003
-0.544044
-20.2855
-1.34114
-22.05
-2.1288
-23.0851
-3.04232
-24.9134
-4.01369
-26.6959
-4.93535
-28.6366
-5.77485
-29.4793
-6.63298
-29.6034
-7.54395
-29.7652
-7.96539
-27.8423
-7.86383
-25.4891
-7.29266
-19.3307
-5.3455
-5.78581
0.797708
6.10951
4.67691
1.01638
5.74009
-6.95186
7.54562
-11.975
9.09612
-19.4364
10.4717
-24.9382
11.2472
-30.4521
11.7142
-35.9046
12.1739
-42.3124
12.3365
-52.0827
12.0356
-67.2924
11.4573
-95.6043
10.2285
-131.026
8.09289
-150.25
5.1158
-106.113
0.927814
61.3168
1.07934
-0.948617
1.39442
-1.10142
1.48927
-1.28057
1.53261
-1.41279
1.20552
-1.4344
0.324928
-1.21058
0.375947
-0.915557
0.644672
-0.727867
1.22936
-0.629811
1.99722
-0.64269
3.01098
-0.78441
3.7406
-1.0094
4.40639
-1.34103
4.85925
-1.78548
5.11494
-2.33025
5.25807
-2.97003
5.32181
-3.68255
5.30961
-4.53081
5.16974
-5.3455
4.93148
-6.36964
4.63428
-7.36425
4.23826
-8.48175
3.77683
-9.58768
3.25077
-10.7242
2.70722
-12.3888
2.15585
-14.1772
1.48767
-15.4699
0.73653
-16.7987
-0.0632808
-18.481
-0.852335
-20.7743
-1.67192
-22.5069
-2.4859
-23.6416
-3.44723
-25.4799
-4.43008
-27.2012
-5.34647
-29.065
-6.21166
-29.9007
-7.17912
-29.9683
-7.88172
-29.8489
-7.96638
-27.7398
-7.71612
-25.0656
-6.85945
-17.8168
-3.84673
-1.14137
2.98105
7.80537
5.09535
1.66112
5.97659
-5.38283
7.75877
-10.6376
9.13669
-18.1015
10.4431
-24.1341
11.2322
-29.9701
11.7972
-35.5279
12.2443
-42.2203
12.5339
-52.581
12.2284
-68.0634
11.7128
-97.0886
10.3869