/*--------------------------------*- C++ -*----------------------------------*\
| =========                 |                                                 |
| \\      /  F ield         | OpenFOAM: The Open Source CFD Toolbox           |
|  \\    /   O peration     | Version:  2212                                  |
|   \\  /    A nd           | Website:  www.openfoam.com                      |
|    \\/     M anipulation  |                                                 |
\*---------------------------------------------------------------------------*/
FoamFile
{
    version     2.0;
    format      ascii;
    arch        "LSB;label=32;scalar=64";
    class       volVectorField;
    location    "100";
    object      U;
}
// * * * * * * * * * * * * * * * * * * * * * * * * * * * * * * * * * * * * * //

dimensions      [0 1 -1 0 0 0 0];

internalField   nonuniform List<vector> 
165000
(
(-25.9455 -0.0277272 0)
(-25.7156 -0.415045 0)
(-47.9539 0.0885596 0)
(-23.4374 -1.82677 0)
(-47.4948 0.833234 0)
(-45.0581 0.119151 0)
(35.4858 -18.3015 0)
(-42.9495 5.79234 0)
(-44.7299 1.05937 0)
(-38.6984 0.161706 0)
(75.302 -45.0824 0)
(42.4972 -23.3786 0)
(-39.7302 8.16023 0)
(-39.0661 2.25764 0)
(-39.0506 0.144565 0)
(81.3843 -63.4398 0)
(80.4649 -48.2144 0)
(45.137 -26.2699 0)
(-31.8328 11.3774 0)
(-39.815 2.8983 0)
(-40.2257 0.00770695 0)
(85.6121 -73.9526 0)
(84.8978 -67.5141 0)
(82.5997 -49.5452 0)
(51.599 -30.1848 0)
(-29.6099 14.473 0)
(-41.6915 4.43261 0)
(-40.843 -0.068774 0)
(92.546 -83.3147 0)
(88.2875 -77.67 0)
(86.6449 -69.2842 0)
(87.0298 -52.2585 0)
(54.7368 -32.9216 0)
(-29.6936 20.5176 0)
(-44.3124 6.05303 0)
(-40.9675 -0.403158 0)
(99.5528 -88.0314 0)
(94.4064 -86.4973 0)
(89.3677 -79.464 0)
(89.9307 -72.8588 0)
(89.2861 -53.8312 0)
(60.2232 -36.5142 0)
(-24.5211 28.9917 0)
(-45.1642 8.57166 0)
(-41.411 -0.953112 0)
(117.134 -91.1782 0)
(100.711 -89.3131 0)
(95.1074 -88.0595 0)
(91.566 -82.9843 0)
(91.7809 -74.7175 0)
(93.2007 -56.2642 0)
(64.6895 -39.3531 0)
(-22.0491 34.2942 0)
(-48.5348 14.4811 0)
(-42.4481 -1.15235 0)
(176.561 -89.173 0)
(116.784 -91.2589 0)
(100.719 -90.0593 0)
(96.409 -90.9817 0)
(92.7153 -84.7687 0)
(95.0475 -77.9954 0)
(95.4481 -57.8959 0)
(72.3932 -42.5716 0)
(-22.0179 42.8181 0)
(-51.062 20.4408 0)
(-43.6256 -1.53216 0)
(218.445 -78.0026 0)
(176.293 -87.594 0)
(115.872 -91.1989 0)
(101.179 -90.937 0)
(96.803 -92.3933 0)
(94.523 -88.389 0)
(97.0449 -80.2085 0)
(99.2456 -60.3055 0)
(80.987 -45.2558 0)
(-11.2067 50.3362 0)
(-54.8904 23.0291 0)
(-44.8765 -2.61081 0)
(229.767 -67.8203 0)
(215.064 -74.8523 0)
(172.36 -86.5457 0)
(116.26 -91.7472 0)
(100.866 -91.6732 0)
(97.7917 -94.4577 0)
(95.7511 -90.0281 0)
(100.238 -83.3543 0)
(101.915 -62.4543 0)
(89.8695 -48.2812 0)
(-0.545498 43.6436 0)
(-56.6201 22.5473 0)
(-45.7824 -4.0416 0)
(228.465 -57.484 0)
(225.047 -64.5343 0)
(212.158 -72.7179 0)
(170.59 -85.237 0)
(115.618 -92.2186 0)
(100.957 -92.6356 0)
(97.8226 -95.2888 0)
(97.0553 -93.1228 0)
(102.287 -85.7047 0)
(105.894 -65.5298 0)
(96.0595 -51.4269 0)
(-2.84717 9.78809 0)
(-58.7151 23.6101 0)
(-46.9033 -5.41033 0)
(226.793 -50.9176 0)
(223.996 -54.3156 0)
(223.798 -61.3966 0)
(208.539 -70.1322 0)
(165.74 -84.5837 0)
(114.325 -92.7291 0)
(100.431 -93.3742 0)
(98.2237 -96.1187 0)
(98.1294 -94.3192 0)
(105.163 -88.4354 0)
(108.561 -68.3435 0)
(100.738 -55.7105 0)
(5.17539 -11.3688 0)
(-58.1723 23.9184 0)
(-47.674 -6.9978 0)
(225.42 -47.7654 0)
(223.588 -48.3776 0)
(223.498 -50.5635 0)
(219.065 -58.6186 0)
(205.361 -68.2873 0)
(163.577 -83.7434 0)
(112.94 -93.0974 0)
(100.382 -93.8187 0)
(97.9616 -96.6213 0)
(98.9389 -96.4227 0)
(107.052 -90.2323 0)
(112.27 -71.7089 0)
(104.117 -59.1362 0)
(12.2666 -18.4746 0)
(-57.8031 24.6426 0)
(-48.7574 -8.27305 0)
(222.661 -46.0347 0)
(223.061 -45.5387 0)
(224.006 -44.8406 0)
(219.41 -48.0375 0)
(217.542 -55.9784 0)
(201.338 -66.3756 0)
(160.139 -83.2711 0)
(112.064 -93.239 0)
(99.82 -93.9514 0)
(98.0144 -97.038 0)
(99.6338 -97.233 0)
(109.503 -92.1236 0)
(114.508 -74.3075 0)
(107.6 -62.6261 0)
(19.635 -24.6195 0)
(-57.1001 25.8048 0)
(-49.4287 -9.44737 0)
(217.411 -44.1464 0)
(220.541 -44.0097 0)
(224.087 -42.1866 0)
(221.222 -42.7807 0)
(218.656 -45.1003 0)
(212.921 -54.0341 0)
(198.07 -65.1824 0)
(160.05 -82.6365 0)
(110.799 -93.3724 0)
(99.579 -93.9781 0)
(97.5725 -97.5329 0)
(100.159 -98.4729 0)
(111.125 -93.0317 0)
(117.796 -77.1382 0)
(110.571 -65.4764 0)
(26.2512 -29.5896 0)
(-56.0998 27.187 0)
(-50.5753 -10.0505 0)
(210.293 -41.5348 0)
(215.017 -42.1847 0)
(221.584 -40.9177 0)
(221.99 -40.0514 0)
(221.444 -39.8919 0)
(215.018 -43.4602 0)
(211.108 -52.3273 0)
(193.82 -64.3138 0)
(154.397 -82.9253 0)
(109.73 -93.2975 0)
(98.9389 -93.6979 0)
(97.341 -97.7705 0)
(100.542 -98.9086 0)
(113.149 -94.1346 0)
(119.573 -79.321 0)
(113.848 -68.0926 0)
(33.2215 -34.2041 0)
(-54.7811 28.7799 0)
(-51.3348 -10.38 0)
(202.204 -38.8796 0)
(207.729 -39.7217 0)
(215.802 -38.9548 0)
(219.56 -38.9599 0)
(222.7 -37.604 0)
(219.158 -38.3967 0)
(213.924 -41.6128 0)
(206.688 -51.4465 0)
(190.447 -63.8968 0)
(152.209 -83.3019 0)
(108.28 -93.2836 0)
(98.553 -93.5731 0)
(96.8041 -98.0032 0)
(101.125 -99.0184 0)
(114.458 -94.4764 0)
(122.431 -81.6478 0)
(116.58 -70.034 0)
(39.9234 -38.3618 0)
(-53.2258 30.3741 0)
(-52.6663 -10.081 0)
(191.283 -35.5676 0)
(199.439 -37.1989 0)
(208.163 -36.6922 0)
(213.478 -37.0201 0)
(220.276 -36.479 0)
(221.031 -36.1407 0)
(219.099 -36.3675 0)
(210.633 -40.8804 0)
(204.663 -50.8461 0)
(186.032 -63.9872 0)
(147.79 -83.9642 0)
(107.295 -93.3638 0)
(98.0053 -93.4806 0)
(96.4452 -97.9107 0)
(101.507 -98.8019 0)
(116.1 -94.8886 0)
(123.824 -83.6051 0)
(119.662 -71.577 0)
(46.9145 -42.1586 0)
(-51.4669 32.0847 0)
(-53.5393 -9.69118 0)
(181.037 -32.3286 0)
(188.292 -33.9366 0)
(199.464 -34.5421 0)
(205.948 -34.8356 0)
(214.05 -34.2669 0)
(218.578 -34.9344 0)
(221.376 -34.491 0)
(217.247 -35.5208 0)
(209.244 -40.1139 0)
(200.351 -50.9864 0)
(182.727 -64.4787 0)
(145.101 -84.5731 0)
(106.286 -93.3412 0)
(97.6539 -93.3747 0)
(95.8395 -97.6682 0)
(101.512 -99.0953 0)
(117.075 -95.0402 0)
(126.305 -85.6776 0)
(122.163 -72.5448 0)
(53.7183 -45.3623 0)
(-49.3946 33.3993 0)
(-55.2101 -8.50508 0)
(172.036 -29.7774 0)
(178.332 -30.8906 0)
(188.019 -31.5579 0)
(197.149 -32.7403 0)
(206.361 -32.1992 0)
(212.031 -32.7457 0)
(218.921 -33.3143 0)
(220.165 -33.6451 0)
(216.809 -34.4222 0)
(206.039 -40.1928 0)
(198.24 -51.5135 0)
(178.278 -65.2882 0)
(141.512 -85.4776 0)
(104.966 -92.7636 0)
(97.1121 -93.7186 0)
(95.4882 -97.3813 0)
(101.941 -99.0653 0)
(118.511 -95.2235 0)
(127.535 -87.4568 0)
(125.084 -73.3249 0)
(60.7578 -48.192 0)
(-47.0862 34.227 0)
(-56.1399 -7.62705 0)
(166.611 -28.747 0)
(170.142 -28.5878 0)
(178.032 -28.9534 0)
(185.681 -29.898 0)
(197.258 -30.2665 0)
(204.386 -30.5751 0)
(212.143 -30.8182 0)
(217.489 -32.5167 0)
(220.205 -32.8092 0)
(215.237 -34.2331 0)
(204.475 -40.4261 0)
(193.982 -52.4835 0)
(175.136 -66.5733 0)
(138.635 -86.3248 0)
(105.222 -93.971 0)
(96.7897 -94.2843 0)
(95.1502 -97.8308 0)
(101.491 -100.677 0)
(119.31 -95.9082 0)
(129.781 -89.4641 0)
(127.498 -73.7543 0)
(67.8172 -50.4083 0)
(-44.7962 34.6968 0)
(-58.1811 -6.06018 0)
(161.897 -27.9623 0)
(165.478 -27.9167 0)
(170.164 -27.0045 0)
(176.125 -27.626 0)
(185.547 -27.7101 0)
(195.187 -28.5225 0)
(204.565 -28.4946 0)
(210.395 -29.8367 0)
(217.248 -31.7317 0)
(219.315 -32.5316 0)
(214.527 -34.0188 0)
(201.151 -41.2115 0)
(191.801 -53.9561 0)
(170.835 -67.9158 0)
(135.852 -87.7626 0)
(104.288 -94.4369 0)
(96.4351 -95.6147 0)
(94.7247 -99.0968 0)
(102.065 -101.18 0)
(120.572 -96.9119 0)
(131.105 -91.2766 0)
(130.421 -74.4401 0)
(74.9251 -52.4261 0)
(-41.8541 35.0614 0)
(-59.1201 -4.17645 0)
(155.26 -28.0107 0)
(161.288 -27.2952 0)
(165.752 -26.7843 0)
(168.994 -25.9528 0)
(176.027 -25.8256 0)
(183.574 -26.1616 0)
(195.278 -26.3721 0)
(202.657 -27.1517 0)
(209.979 -28.7225 0)
(216.118 -31.6238 0)
(219.048 -32.2805 0)
(212.898 -34.449 0)
(199.409 -42.321 0)
(187.642 -55.4721 0)
(167.878 -69.8264 0)
(133.102 -88.8366 0)
(103.792 -95.299 0)
(96.1294 -96.2683 0)
(94.567 -99.7416 0)
(102.353 -102.119 0)
(121.265 -98.5587 0)
(133.32 -93.65 0)
(132.967 -75.1347 0)
(81.8011 -53.9819 0)
(-39.1004 34.2256 0)
(-61.2944 -1.54577 0)
(149.307 -26.7417 0)
(154.342 -27.5114 0)
(161.526 -26.3353 0)
(165.172 -25.9676 0)
(169.283 -24.4838 0)
(174.498 -24.4918 0)
(183.605 -24.1478 0)
(193.292 -24.63 0)
(202.402 -25.5957 0)
(208.108 -28.1249 0)
(215.592 -31.5268 0)
(218.483 -32.4362 0)
(212.014 -35.139 0)
(195.937 -43.6411 0)
(185.381 -57.5907 0)
(163.793 -71.3782 0)
(130.425 -90.3914 0)
(103.362 -95.6941 0)
(95.8148 -97.2872 0)
(94.1637 -100.917 0)
(102.597 -103.695 0)
(122.446 -100.627 0)
(134.88 -95.8828 0)
(135.992 -76.5354 0)
(88.2594 -55.6269 0)
(-36.2567 34.2184 0)
(-62.6713 -0.281895 0)
(143.022 -25.6771 0)
(147.617 -26.0469 0)
(154.269 -26.7107 0)
(161.132 -25.5967 0)
(165.681 -24.7847 0)
(168.401 -23.4352 0)
(174.706 -22.7286 0)
(181.895 -22.5684 0)
(193.278 -22.6807 0)
(200.246 -24.3981 0)
(207.267 -27.5412 0)
(214.461 -31.8026 0)
(218.18 -32.6816 0)
(210.158 -36.163 0)
(194.022 -45.4056 0)
(181.345 -59.3173 0)
(160.948 -73.5315 0)
(128.101 -91.247 0)
(102.809 -96.7634 0)
(95.4585 -98.343 0)
(93.9473 -102.573 0)
(102.915 -105.538 0)
(123.135 -103.061 0)
(137.157 -98.6519 0)
(138.708 -78.1871 0)
(94.7072 -57.1115 0)
(-32.5676 35.5997 0)
(-65.1135 2.07971 0)
(136.923 -24.6234 0)
(141.484 -25.1347 0)
(147.27 -25.0587 0)
(153.593 -26.0291 0)
(161.567 -24.492 0)
(165.197 -23.8985 0)
(168.974 -22.0423 0)
(173.462 -21.3496 0)
(182.032 -20.7245 0)
(191.227 -20.9031 0)
(199.502 -23.2017 0)
(205.013 -27.0469 0)
(213.725 -32.1565 0)
(217.539 -32.9942 0)
(208.907 -37.5561 0)
(190.461 -46.9739 0)
(179.02 -61.7321 0)
(157.159 -74.9697 0)
(125.672 -92.9222 0)
(102.464 -97.7203 0)
(95.1419 -100.177 0)
(93.6414 -104.199 0)
(103.144 -107.69 0)
(124.247 -105.799 0)
(138.958 -101.212 0)
(141.801 -80.5947 0)
(101.295 -58.7908 0)
(-28.7289 36.9896 0)
(-67.0309 4.18557 0)
(133.583 -24.764 0)
(136.382 -24.5294 0)
(141.836 -24.7594 0)
(146.288 -24.6755 0)
(153.641 -24.9829 0)
(161.176 -23.6658 0)
(165.866 -22.6144 0)
(168.297 -20.892 0)
(173.914 -19.5531 0)
(180.438 -18.9628 0)
(190.927 -19.0446 0)
(196.882 -21.9799 0)
(203.629 -26.5661 0)
(212.309 -32.3279 0)
(216.924 -33.3518 0)
(206.72 -38.8971 0)
(188.374 -49.053 0)
(175.11 -63.3765 0)
(154.443 -77.2442 0)
(123.644 -93.7542 0)
(101.94 -99.3049 0)
(94.7521 -101.725 0)
(93.3679 -106.133 0)
(103.32 -109.986 0)
(124.929 -108.469 0)
(141.247 -104.1 0)
(144.698 -83.1848 0)
(108.669 -60.4909 0)
(-25.3313 36.9484 0)
(-69.6525 7.12901 0)
(127.591 -23.4537 0)
(132.378 -24.6736 0)
(136.211 -24.4979 0)
(141.809 -24.6021 0)
(146.118 -23.9548 0)
(153.259 -24.1957 0)
(161.734 -22.5182 0)
(165.514 -21.5087 0)
(169.068 -19.3786 0)
(172.87 -17.8516 0)
(180.596 -17.0325 0)
(188.67 -17.0724 0)
(195.551 -20.8444 0)
(200.829 -25.5958 0)
(211.116 -32.4668 0)
(215.934 -33.3935 0)
(204.956 -40.624 0)
(184.748 -50.5064 0)
(172.737 -65.8043 0)
(150.911 -78.4638 0)
(121.333 -95.2929 0)
(101.471 -100.48 0)
(94.4032 -103.644 0)
(92.984 -107.938 0)
(103.443 -112.17 0)
(125.894 -111.182 0)
(143.141 -106.672 0)
(147.942 -86.2064 0)
(116.515 -62.4669 0)
(-20.0461 34.7864 0)
(-71.7961 9.13485 0)
(123.025 -23.8934 0)
(127.273 -23.4954 0)
(132.524 -24.7659 0)
(136.41 -24.4205 0)
(141.808 -24.3531 0)
(145.772 -23.5432 0)
(153.53 -23.0265 0)
(161.38 -21.499 0)
(166.254 -20.1039 0)
(168.563 -17.9911 0)
(173.449 -15.9886 0)
(179.06 -15.0341 0)
(187.974 -15.1589 0)
(192.408 -19.2287 0)
(198.821 -24.6055 0)
(209.256 -31.8487 0)
(214.7 -33.4672 0)
(202.262 -41.8737 0)
(182.503 -52.5368 0)
(168.887 -67.1302 0)
(148.27 -80.7223 0)
(119.467 -95.976 0)
(100.866 -102.191 0)
(93.909 -105.402 0)
(92.6649 -109.708 0)
(103.441 -114.244 0)
(126.506 -113.502 0)
(145.274 -109.361 0)
(151.098 -89.1422 0)
(124.507 -64.6325 0)
(-11.5433 29.2644 0)
(-74.1456 11.0313 0)
(118.309 -22.3679 0)
(122.003 -24.0611 0)
(127.118 -23.5902 0)
(132.02 -24.7154 0)
(136.156 -24.3193 0)
(141.492 -23.9548 0)
(146.105 -22.5158 0)
(153.241 -21.9336 0)
(161.97 -20.2424 0)
(166.042 -18.7835 0)
(169.538 -16.3756 0)
(172.629 -13.9243 0)
(179.091 -12.8588 0)
(185.388 -12.8262 0)
(190.527 -17.7559 0)
(195.474 -22.6123 0)
(207.348 -31.1364 0)
(213.05 -32.9478 0)
(199.844 -43.5185 0)
(178.778 -53.545 0)
(166.424 -69.339 0)
(144.956 -81.8444 0)
(117.228 -97.3728 0)
(100.187 -103.462 0)
(93.5267 -107.122 0)
(92.1609 -111.325 0)
(103.409 -115.911 0)
(127.256 -115.76 0)
(147.062 -111.761 0)
(154.484 -92.1665 0)
(131.448 -67.0407 0)
(-4.73314 16.5957 0)
(-75.6786 13.5833 0)
(115.46 -22.9997 0)
(117.555 -22.6471 0)
(121.727 -24.3434 0)
(126.561 -23.7148 0)
(132.383 -24.6671 0)
(135.639 -24.303 0)
(142.023 -23.3909 0)
(146.084 -21.7894 0)
(153.701 -20.5951 0)
(161.645 -18.9919 0)
(166.855 -17.2164 0)
(169.224 -14.6022 0)
(173.261 -11.8364 0)
(177.611 -10.4294 0)
(184.295 -10.668 0)
(186.989 -15.367 0)
(192.864 -20.6826 0)
(204.815 -29.2276 0)
(210.821 -32.5521 0)
(196.534 -44.2861 0)
(176.356 -55.2495 0)
(162.528 -70.2501 0)
(142.351 -84.0298 0)
(115.412 -97.9812 0)
(99.4842 -105.016 0)
(92.9484 -108.768 0)
(91.7969 -112.826 0)
(103.258 -117.383 0)
(127.767 -117.707 0)
(148.941 -114.31 0)
(157.742 -95.0918 0)
(137.256 -69.6547 0)
(-2.8303 -0.752034 0)
(-76.7618 17.1908 0)
(110.831 -21.6759 0)
(114.359 -23.639 0)
(117.572 -23.3872 0)
(121.707 -24.505 0)
(126.767 -23.919 0)
(131.891 -24.7315 0)
(136.557 -24.1626 0)
(142.911 -22.6337 0)
(146.678 -20.794 0)
(153.649 -19.3641 0)
(162.267 -17.5613 0)
(166.751 -15.6067 0)
(170.37 -12.7412 0)
(172.676 -9.38923 0)
(177.47 -7.99581 0)
(181.419 -7.85729 0)
(184.767 -13.2297 0)
(189.045 -17.4415 0)
(202.007 -27.1966 0)
(208.134 -31.4093 0)
(193.42 -45.4938 0)
(172.454 -55.6356 0)
(159.875 -72.0453 0)
(139.169 -85.2828 0)
(113.316 -99.3604 0)
(98.6373 -106.387 0)
(92.5576 -110.367 0)
(91.2659 -114.301 0)
(103.129 -118.652 0)
(128.297 -119.692 0)
(150.609 -116.634 0)
(161.084 -98.0513 0)
(141.807 -72.1179 0)
(-0.891868 -11.6041 0)
(-77.656 21.849 0)
(105.963 -21.4921 0)
(109.126 -22.2236 0)
(114.638 -24.914 0)
(118.141 -23.9884 0)
(122.32 -25.0847 0)
(126.806 -24.2638 0)
(132.848 -24.9123 0)
(136.986 -23.914 0)
(143.868 -21.8012 0)
(146.927 -20.0203 0)
(154.419 -18.0337 0)
(162.11 -16.1096 0)
(167.701 -13.851 0)
(170.308 -10.6254 0)
(173.373 -7.06077 0)
(176.054 -5.05913 0)
(180.046 -5.34877 0)
(181.059 -9.85622 0)
(185.996 -14.5099 0)
(198.605 -23.6965 0)
(204.638 -30.5764 0)
(189.44 -45.55 0)
(169.819 -56.8562 0)
(155.812 -72.6904 0)
(136.57 -87.3636 0)
(111.526 -100.281 0)
(97.8756 -107.914 0)
(91.9856 -112.022 0)
(90.9469 -115.887 0)
(102.912 -119.904 0)
(128.644 -121.57 0)
(152.278 -119.126 0)
(164.287 -100.955 0)
(146.051 -74.4813 0)
(6.57588 -16.8537 0)
(-78.5721 27.2407 0)
(101.782 -20.5418 0)
(104.255 -22.2032 0)
(108.872 -23.3472 0)
(114.253 -25.5452 0)
(118.839 -24.8521 0)
(123.046 -25.7081 0)
(126.824 -25.0855 0)
(133.269 -25.3661 0)
(138.879 -23.6175 0)
(145.256 -21.3109 0)
(147.988 -19.1355 0)
(154.766 -16.6895 0)
(162.863 -14.4741 0)
(167.758 -11.8929 0)
(171.612 -8.38159 0)
(172.995 -4.20555 0)
(175.778 -2.28777 0)
(177.024 -1.95255 0)
(178.76 -6.90449 0)
(181.893 -10.277 0)
(194.808 -20.168 0)
(200.598 -28.8504 0)
(185.703 -46.1295 0)
(165.646 -56.7322 0)
(152.834 -74.0077 0)
(133.395 -88.9795 0)
(109.602 -101.915 0)
(96.9911 -109.572 0)
(91.6409 -113.916 0)
(90.5237 -117.563 0)
(102.762 -121.347 0)
(128.997 -123.475 0)
(153.815 -121.391 0)
(167.542 -103.813 0)
(150.106 -76.62 0)
(14.0874 -19.2244 0)
(-79.1881 32.8581 0)
(96.1894 -19.959 0)
(99.7687 -21.2546 0)
(104.14 -23.4125 0)
(107.411 -23.64 0)
(114.184 -26.3274 0)
(119.454 -25.673 0)
(123.993 -26.7118 0)
(128.337 -26.1438 0)
(134.034 -26.2693 0)
(140.994 -23.7646 0)
(146.769 -20.9849 0)
(148.954 -18.2883 0)
(155.875 -15.2541 0)
(162.975 -12.7375 0)
(168.834 -9.85593 0)
(171.802 -5.84951 0)
(173.77 -1.54354 0)
(174.427 1.14306 0)
(175.573 0.938131 0)
(175.106 -2.626 0)
(178.702 -6.68914 0)
(190.453 -15.3312 0)
(195.653 -27.3968 0)
(180.995 -45.4264 0)
(162.705 -57.4203 0)
(148.485 -74.8074 0)
(130.762 -90.9026 0)
(107.878 -103.529 0)
(96.2314 -111.497 0)
(91.1554 -115.915 0)
(90.3278 -119.544 0)
(102.564 -122.933 0)
(129.243 -125.379 0)
(155.311 -123.78 0)
(170.699 -106.629 0)
(154.429 -78.7498 0)
(21.4103 -20.5756 0)
(-80.7327 38.4874 0)
(91.5896 -19.1504 0)
(93.887 -20.6124 0)
(99.3889 -22.3711 0)
(102.865 -23.8333 0)
(106.776 -24.0922 0)
(113.2 -26.6821 0)
(119.871 -26.6784 0)
(124.718 -27.6874 0)
(129.29 -27.2182 0)
(136.081 -26.7682 0)
(143.168 -23.7638 0)
(148.819 -20.6099 0)
(150.622 -17.456 0)
(156.749 -13.7793 0)
(163.962 -10.8477 0)
(169.156 -7.51275 0)
(173.245 -3.18837 0)
(173.578 1.66355 0)
(174.114 4.29375 0)
(172.593 4.92711 0)
(172.889 1.08057 0)
(174.528 -1.90221 0)
(185.875 -11.0551 0)
(190.088 -24.695 0)
(176.618 -45.2134 0)
(158.141 -57.172 0)
(145.076 -75.812 0)
(127.497 -93.0749 0)
(106.082 -105.697 0)
(95.4045 -113.648 0)
(90.8874 -118.309 0)
(90.0582 -121.579 0)
(102.446 -124.843 0)
(129.528 -127.329 0)
(156.73 -125.981 0)
(173.873 -109.433 0)
(158.845 -80.7642 0)
(28.935 -21.4378 0)
(-81.7454 43.5838 0)
(88.5296 -18.8495 0)
(90.111 -20.111 0)
(93.4791 -21.8791 0)
(98.083 -22.6121 0)
(102.489 -24.5353 0)
(105.45 -24.0021 0)
(112.157 -26.9918 0)
(119.41 -27.525 0)
(125.243 -28.8994 0)
(130.611 -27.8715 0)
(137.539 -26.9103 0)
(145.643 -23.3989 0)
(150.795 -19.8481 0)
(152.171 -16.5418 0)
(158.308 -12.3435 0)
(164.517 -8.78679 0)
(170.38 -5.16017 0)
(173.724 -0.202339 0)
(174.419 4.69779 0)
(172.832 8.29255 0)
(171.18 8.25559 0)
(169.386 6.02463 0)
(171.364 2.19724 0)
(180.741 -6.13915 0)
(183.96 -22.5245 0)
(171.061 -43.9024 0)
(154.737 -57.3635 0)
(140.371 -77.3202 0)
(124.783 -94.9294 0)
(104.413 -108.052 0)
(94.6892 -116.19 0)
(90.5283 -120.761 0)
(89.9874 -123.93 0)
(102.322 -126.859 0)
(129.741 -129.396 0)
(158.156 -128.291 0)
(177.017 -111.987 0)
(163.477 -82.8112 0)
(36.6935 -22.0311 0)
(-82.8685 48.5787 0)
(84.8382 -18.3819 0)
(86.779 -19.9104 0)
(90.5096 -21.6217 0)
(92.445 -22.57 0)
(97.5842 -23.4156 0)
(101.627 -24.9742 0)
(104.837 -24.4977 0)
(110.727 -27.175 0)
(119.267 -28.1388 0)
(125.838 -29.5241 0)
(131.705 -28.2396 0)
(139.916 -27.0122 0)
(148.316 -23.1853 0)
(153.116 -19.1006 0)
(154.236 -15.4087 0)
(159.69 -10.6202 0)
(165.794 -6.58945 0)
(171.038 -2.37241 0)
(175.226 2.91518 0)
(174.381 8.31765 0)
(172.546 11.9418 0)
(168.362 12.7891 0)
(167.258 10.4414 0)
(167.127 7.4251 0)
(175.513 -1.64952 0)
(177.159 -19.4808 0)
(166.074 -42.9947 0)
(149.668 -57.4524 0)
(136.454 -78.2578 0)
(121.376 -97.8196 0)
(102.729 -110.821 0)
(93.9753 -118.962 0)
(90.385 -123.663 0)
(89.895 -126.232 0)
(102.255 -129.118 0)
(130.014 -131.494 0)
(159.469 -130.756 0)
(180.227 -114.444 0)
(168.208 -84.7635 0)
(44.6494 -22.4813 0)
(-84.3132 52.6079 0)
(81.6396 -18.206 0)
(83.4324 -19.59 0)
(86.8213 -21.4099 0)
(90.0943 -22.2051 0)
(92.2042 -23.4915 0)
(96.7694 -23.6687 0)
(101.63 -26.1394 0)
(104.38 -25.4838 0)
(110.01 -27.3028 0)
(117.855 -28.7752 0)
(126.284 -29.8717 0)
(133.285 -28.7292 0)
(142.171 -27.008 0)
(151.235 -22.8271 0)
(155.6 -17.9951 0)
(156.065 -14.0195 0)
(161.604 -8.8886 0)
(166.797 -4.14202 0)
(172.428 0.327242 0)
(176.009 6.44878 0)
(175.322 11.7856 0)
(171.338 16.5249 0)
(166.961 16.7681 0)
(163.901 15.9252 0)
(163.83 12.3736 0)
(169.41 3.86357 0)
(169.936 -16.6196 0)
(159.572 -41.5419 0)
(145.605 -57.319 0)
(131.387 -80.7808 0)
(118.552 -99.9999 0)
(101.075 -113.804 0)
(93.3385 -122.112 0)
(90.1948 -126.593 0)
(89.9747 -128.846 0)
(102.222 -131.384 0)
(130.225 -133.773 0)
(160.816 -133.449 0)
(183.389 -116.814 0)
(173.104 -86.7488 0)
(52.5667 -22.8377 0)
(-85.9992 54.9871 0)
(77.4355 -17.8852 0)
(80.5043 -19.5038 0)
(84.0301 -20.9183 0)
(85.2367 -22.0951 0)
(90.257 -22.5943 0)
(91.2682 -23.9609 0)
(96.5836 -24.6894 0)
(101.563 -27.6497 0)
(105.368 -27.212 0)
(109.826 -28.5505 0)
(117.576 -29.2718 0)
(126.646 -30.3164 0)
(134.748 -28.9338 0)
(144.593 -26.7102 0)
(154.134 -22.2175 0)
(158.234 -16.7932 0)
(158.404 -12.4756 0)
(163.425 -6.77385 0)
(168.389 -1.6443 0)
(173.493 3.54909 0)
(177.58 10.1209 0)
(175.44 15.9689 0)
(171.102 20.6345 0)
(164.448 21.8873 0)
(161.794 21.1837 0)
(159.363 18.2709 0)
(163.485 9.61703 0)
(161.648 -12.5692 0)
(153.684 -39.9305 0)
(139.899 -58.2457 0)
(126.925 -81.7339 0)
(114.964 -103.661 0)
(99.5263 -117.099 0)
(92.7625 -125.484 0)
(90.1944 -130.107 0)
(90.0987 -131.381 0)
(102.205 -133.717 0)
(130.478 -135.987 0)
(162.087 -136.114 0)
(186.653 -119.095 0)
(178.087 -88.6105 0)
(60.4981 -23.2429 0)
(-87.7414 55.9187 0)
(73.8125 -17.3704 0)
(75.5859 -18.9603 0)
(80.6725 -20.3109 0)
(82.0833 -21.5326 0)
(84.7382 -22.4579 0)
(88.3485 -23.228 0)
(91.3569 -25.4198 0)
(96.2592 -26.4427 0)
(102.913 -29.7851 0)
(107.231 -29.8195 0)
(111.672 -30.203 0)
(118.159 -30.1596 0)
(127.563 -30.4275 0)
(136.652 -28.6539 0)
(147.261 -25.9937 0)
(157.334 -21.5802 0)
(161.273 -15.557 0)
(160.596 -10.5823 0)
(165.607 -4.60201 0)
(169.766 1.22656 0)
(175.113 6.75859 0)
(178.626 14.2871 0)
(176.403 20.1052 0)
(169.992 25.611 0)
(163.105 26.661 0)
(158.621 27.2697 0)
(155.884 24.2889 0)
(156.372 16.1397 0)
(153.192 -7.68808 0)
(145.752 -38.3126 0)
(134.869 -58.179 0)
(121.526 -85.0913 0)
(111.998 -106.572 0)
(97.9099 -120.713 0)
(92.1971 -129.229 0)
(90.2076 -133.751 0)
(90.3678 -134.207 0)
(102.245 -135.899 0)
(130.611 -138.298 0)
(163.412 -138.953 0)
(189.879 -121.326 0)
(183.191 -90.4908 0)
(68.4024 -23.7761 0)
(-89.3756 55.7436 0)
(72.7167 -17.5238 0)
(72.7089 -18.7584 0)
(75.1956 -19.6776 0)
(77.213 -20.6817 0)
(81.3773 -21.7624 0)
(83.8682 -23.0185 0)
(88.2433 -25.1986 0)
(91.8499 -28.03 0)
(97.4397 -29.3969 0)
(104.511 -32.7439 0)
(110.175 -33.0847 0)
(114.323 -32.6513 0)
(120.338 -31.145 0)
(128.374 -30.7997 0)
(138.493 -28.3175 0)
(149.986 -25.338 0)
(160.584 -20.7268 0)
(164.375 -14.0824 0)
(163.314 -8.67028 0)
(167.837 -2.05215 0)
(171.668 4.07565 0)
(176.695 10.4967 0)
(180.261 18.4416 0)
(176.643 24.863 0)
(169.761 30.2851 0)
(160.995 32.2765 0)
(156.574 33.499 0)
(151.318 31.0221 0)
(149.802 23.256 0)
(143.277 -1.60045 0)
(138.222 -35.4297 0)
(128.254 -60.4352 0)
(116.568 -86.24 0)
(108.227 -110.662 0)
(96.4298 -124.608 0)
(91.7569 -133.222 0)
(90.4487 -138.081 0)
(90.8786 -137.048 0)
(102.32 -138.153 0)
(130.817 -140.507 0)
(164.639 -141.772 0)
(193.214 -123.499 0)
(188.362 -92.2101 0)
(76.3982 -24.4967 0)
(-90.8766 54.721 0)
(70.5087 -16.9705 0)
(71.7675 -18.9312 0)
(73.4738 -19.9276 0)
(75.4466 -20.2819 0)
(76.2853 -20.9052 0)
(79.1597 -22.2381 0)
(83.6217 -25.248 0)
(88.2412 -27.9455 0)
(93.3018 -31.3504 0)
(98.6179 -32.7987 0)
(106.999 -35.5666 0)
(113.792 -36.0431 0)
(118.236 -34.8771 0)
(123.379 -32.6483 0)
(131.417 -31.2406 0)
(141.186 -28.2385 0)
(153.114 -24.3617 0)
(163.915 -19.502 0)
(167.865 -12.5993 0)
(165.945 -6.23808 0)
(170.21 0.468631 0)
(173.497 7.40592 0)
(178.635 14.3158 0)
(181.609 23.2756 0)
(177.488 29.7003 0)
(168.792 35.6701 0)
(159.765 37.9149 0)
(153.681 40.3435 0)
(147.726 38.2946 0)
(141.938 30.7585 0)
(133.421 6.38616 0)
(128.04 -33.0425 0)
(121.787 -60.9337 0)
(110.94 -90.2254 0)
(105.119 -114.091 0)
(94.8967 -128.948 0)
(91.2677 -137.671 0)
(90.8172 -142.827 0)
(91.5478 -140.607 0)
(102.566 -140.556 0)
(130.877 -142.832 0)
(165.964 -144.712 0)
(196.522 -125.667 0)
(193.639 -93.9424 0)
(84.4403 -25.4336 0)
(-92.2114 53.0495 0)
(67.9344 -16.6003 0)
(68.406 -18.457 0)
(72.1254 -19.5931 0)
(73.8691 -20.1962 0)
(74.548 -20.3382 0)
(74.6375 -21.527 0)
(78.4145 -24.4815 0)
(82.423 -27.9442 0)
(88.4819 -31.4017 0)
(94.6095 -35.4165 0)
(101.206 -36.9154 0)
(109.556 -38.8841 0)
(117.646 -39.0432 0)
(122.816 -36.9906 0)
(127.288 -33.9612 0)
(134.122 -31.6054 0)
(143.912 -27.6709 0)
(156.104 -23.1845 0)
(167.448 -18.0941 0)
(171.283 -10.8372 0)
(169.181 -3.83708 0)
(172.727 3.53612 0)
(175.707 10.7682 0)
(180.702 18.5844 0)
(183.366 28.0624 0)
(177.833 34.8944 0)
(168.624 41.0962 0)
(158.146 44.1603 0)
(151.746 47.7001 0)
(143.17 46.0345 0)
(135.034 39.2607 0)
(121.874 14.8695 0)
(117.918 -28.2989 0)
(113.87 -64.6561 0)
(105.637 -92.4336 0)
(101.248 -118.468 0)
(93.3949 -133.502 0)
(90.8654 -142.567 0)
(91.3327 -147.999 0)
(92.5671 -144.855 0)
(102.977 -143.317 0)
(131.106 -145.119 0)
(167.183 -147.576 0)
(199.96 -127.786 0)
(198.961 -95.521 0)
(92.5665 -26.592 0)
(-93.3212 50.9129 0)
(66.5823 -16.085 0)
(65.1815 -17.9862 0)
(67.3796 -18.6779 0)
(68.1652 -19.106 0)
(69.6229 -19.1564 0)
(71.1496 -20.4938 0)
(73.7728 -23.6913 0)
(76.4435 -27.1125 0)
(81.9277 -31.4071 0)
(88.4486 -35.1451 0)
(96.5942 -39.3086 0)
(103.985 -40.34 0)
(112.77 -41.4512 0)
(121.807 -41.2172 0)
(127.501 -38.7693 0)
(131.574 -34.7326 0)
(137.465 -31.5915 0)
(147.168 -27.1166 0)
(159.742 -21.9301 0)
(170.948 -16.3345 0)
(175.195 -8.94573 0)
(172.194 -1.06024 0)
(175.385 6.44371 0)
(178.098 14.6181 0)
(183.049 23.075 0)
(185.001 33.4808 0)
(178.455 40.2715 0)
(167.914 46.9302 0)
(157.154 50.8055 0)
(149.235 55.4331 0)
(139.483 54.7797 0)
(126.87 47.4267 0)
(110.817 25.4585 0)
(104.832 -25.3236 0)
(105.494 -65.8632 0)
(99.9049 -97.1739 0)
(98.0007 -122.801 0)
(91.9488 -138.608 0)
(90.4005 -147.844 0)
(92.1041 -153.289 0)
(93.5678 -150.522 0)
(103.701 -146.839 0)
(131.237 -147.798 0)
(168.552 -150.555 0)
(203.356 -129.927 0)
(204.38 -97.1368 0)
(100.716 -28.0081 0)
(-94.1865 48.4649 0)
(66.5238 -15.6859 0)
(63.6864 -17.4351 0)
(63.9856 -17.8327 0)
(64.3782 -18.0366 0)
(66.1086 -17.9043 0)
(67.6254 -19.2081 0)
(69.5483 -22.8093 0)
(71.1613 -26.264 0)
(75.5662 -30.6319 0)
(80.8242 -35.5157 0)
(89.0166 -39.4761 0)
(98.1616 -43.1924 0)
(107.265 -43.8018 0)
(115.8 -44.0482 0)
(126.206 -43.2929 0)
(132.912 -40.5314 0)
(136.795 -35.2441 0)
(141.909 -31.5567 0)
(150.888 -26.48 0)
(163.181 -20.4706 0)
(174.755 -14.2265 0)
(178.74 -6.62783 0)
(175.901 1.84423 0)
(178.141 10.0415 0)
(180.607 18.6076 0)
(185.575 27.971 0)
(186.823 38.8738 0)
(178.933 45.8087 0)
(167.943 53.1445 0)
(156.129 57.924 0)
(147.46 63.9776 0)
(135 63.7285 0)
(119.988 56.5018 0)
(98.0664 34.1618 0)
(91.8259 -20.226 0)
(96.0907 -70.326 0)
(94.3174 -100.655 0)
(94.1842 -127.959 0)
(90.4222 -143.739 0)
(89.9995 -153.39 0)
(92.8565 -158.14 0)
(94.9644 -156.306 0)
(104.634 -150.852 0)
(131.649 -150.603 0)
(169.836 -153.41 0)
(206.908 -132.012 0)
(209.827 -98.6706 0)
(108.774 -29.6654 0)
(-94.8647 45.8096 0)
(67.0746 -15.2107 0)
(63.5949 -17.0975 0)
(63.1065 -17.5566 0)
(63.3431 -17.7452 0)
(63.7177 -17.6161 0)
(64.4645 -18.4752 0)
(65.5207 -21.6371 0)
(66.3384 -25.2448 0)
(69.9781 -30.1712 0)
(74.3573 -35.2226 0)
(81.8802 -40.2815 0)
(90.2548 -43.213 0)
(100.442 -46.1115 0)
(110.403 -46.2373 0)
(119.254 -46.1438 0)
(130.721 -45.092 0)
(138.735 -42.4759 0)
(142.572 -35.9991 0)
(146.536 -31.0544 0)
(154.868 -25.3754 0)
(167.258 -18.7492 0)
(178.448 -12.0122 0)
(183.005 -4.07541 0)
(179.121 4.89994 0)
(181.287 13.5008 0)
(183.612 23.0988 0)
(188.314 33.1468 0)
(188.647 44.7775 0)
(179.347 51.557 0)
(167.734 59.646 0)
(155.498 65.7601 0)
(145.415 72.6643 0)
(131.138 73.7825 0)
(111.852 64.3278 0)
(86.2766 43.803 0)
(76.1585 -20.0022 0)
(86.0559 -71.7325 0)
(88.3451 -105.895 0)
(90.8053 -132.56 0)
(88.9275 -149.103 0)
(89.5202 -158.826 0)
(93.3534 -162.955 0)
(96.1059 -162.535 0)
(105.866 -155.677 0)
(132.027 -154.085 0)
(171.35 -156.422 0)
(210.4 -134.081 0)
(215.336 -100.274 0)
(116.681 -31.5693 0)
(-95.5154 43.0034 0)
(69.0001 -14.589 0)
(64.0805 -16.7305 0)
(62.9906 -17.482 0)
(62.6526 -17.572 0)
(62.9586 -17.478 0)
(62.7657 -17.7137 0)
(62.1879 -20.4279 0)
(61.9043 -24.0603 0)
(64.9988 -29.5162 0)
(68.5793 -35.302 0)
(75.4707 -40.7119 0)
(82.7424 -44.7979 0)
(92.1025 -47.024 0)
(102.659 -49.2858 0)
(114.525 -48.7687 0)
(123.021 -47.6994 0)
(134.9 -45.5425 0)
(144.167 -43.3781 0)
(148.658 -36.3502 0)
(151.761 -30.3409 0)
(159.262 -24.1567 0)
(171.16 -16.9658 0)
(182.59 -9.37901 0)
(186.677 -1.0592 0)
(183.164 8.36435 0)
(184.265 17.5675 0)
(186.498 27.7996 0)
(191.226 38.683 0)
(190.419 50.6107 0)
(180.058 57.4671 0)
(168.177 66.7482 0)
(155.137 74.0782 0)
(143.817 82.1609 0)
(126.601 83.5562 0)
(104.813 72.7618 0)
(72.4658 48.2817 0)
(61.1267 -19.0656 0)
(76.2507 -76.0168 0)
(82.1973 -110.579 0)
(87.1487 -137.593 0)
(87.2052 -154.189 0)
(89.3271 -164.072 0)
(93.97 -167.907 0)
(97.6033 -168.831 0)
(107.28 -161.058 0)
(132.795 -157.855 0)
(172.838 -159.378 0)
(214.069 -136.095 0)
(220.845 -101.918 0)
(124.282 -33.7009 0)
(-96.2212 39.9729 0)
(72.6784 -14.2997 0)
(66.2229 -16.137 0)
(63.3964 -17.3629 0)
(63.3306 -17.7307 0)
(62.6229 -16.9752 0)
(60.8226 -16.5184 0)
(59.0331 -18.9702 0)
(57.5414 -22.7901 0)
(60.051 -28.6041 0)
(62.9181 -34.7004 0)
(68.9668 -41.0373 0)
(75.8597 -45.6825 0)
(85.6613 -49.1983 0)
(95.6554 -50.4971 0)
(106.309 -52.1767 0)
(118.558 -51.4441 0)
(127.143 -49.3282 0)
(139.133 -46.2436 0)
(149.798 -43.5344 0)
(155.035 -36.2916 0)
(157.375 -29.159 0)
(164.046 -22.4493 0)
(175.569 -14.7319 0)
(186.528 -6.70513 0)
(191.218 2.12437 0)
(186.527 11.8684 0)
(188.046 21.7675 0)
(190.054 33.0065 0)
(194.253 44.4857 0)
(192.257 56.816 0)
(180.5 63.5781 0)
(168.767 74.1795 0)
(154.916 83.2005 0)
(142.225 91.4594 0)
(122.281 93.6076 0)
(96.3642 78.7404 0)
(59.7701 52.257 0)
(44.5131 -27.4777 0)
(66.1153 -76.9919 0)
(75.7987 -116.577 0)
(83.7705 -141.83 0)
(85.5767 -159.154 0)
(88.8995 -169.138 0)
(94.5597 -172.659 0)
(98.7437 -175.001 0)
(108.884 -166.892 0)
(133.553 -162.35 0)
(174.641 -162.632 0)
(217.674 -138.086 0)
(226.384 -103.642 0)
(131.559 -35.9986 0)
(-96.6199 36.3198 0)
(76.4204 -13.5142 0)
(70.8056 -15.9773 0)
(65.3903 -17.1118 0)
(63.553 -17.7843 0)
(62.2592 -16.4638 0)
(59.1566 -15.0999 0)
(56.5839 -17.3426 0)
(53.7723 -21.2784 0)
(55.2718 -27.3845 0)
(56.7676 -33.8747 0)
(62.2446 -41.0325 0)
(69.0539 -46.6974 0)
(79.1735 -50.7817 0)
(88.8473 -53.7104 0)
(99.7861 -53.5391 0)
(109.644 -53.8256 0)
(122.609 -52.7734 0)
(131.731 -50.0424 0)
(143.079 -46.6426 0)
(155.226 -43.4508 0)
(161.586 -36.3759 0)
(163.353 -28.0008 0)
(169.009 -20.4558 0)
(179.842 -12.4118 0)
(191.066 -3.59449 0)
(195.114 5.73241 0)