/*--------------------------------*- C++ -*----------------------------------*\
| =========                 |                                                 |
| \\      /  F ield         | OpenFOAM: The Open Source CFD Toolbox           |
|  \\    /   O peration     | Version:  2212                                  |
|   \\  /    A nd           | Website:  www.openfoam.com                      |
|    \\/     M anipulation  |                                                 |
\*---------------------------------------------------------------------------*/
FoamFile
{
    version     2.0;
    format      ascii;
    arch        "LSB;label=32;scalar=64";
    class       volScalarField;
    location    "20";
    object      nut;
}
// * * * * * * * * * * * * * * * * * * * * * * * * * * * * * * * * * * * * * //

dimensions      [0 2 -1 0 0 0 0];

internalField   nonuniform List<scalar> 
165000
(
1.42852e-13
1.34909e-12
1.42689e-13
1.1774e-12
1.20994e-12
1.43935e-13
4.81025e-13
5.99421e-13
7.09902e-13
1.44558e-13
8.24164e-13
4.9399e-13
8.60483e-13
8.29327e-13
1.46697e-13
5.94352e-13
7.6479e-13
7.88561e-13
9.40871e-13
1.01972e-12
1.4911e-13
6.05596e-13
4.73487e-13
6.30366e-13
6.88949e-13
9.61126e-13
8.45096e-13
1.43559e-13
6.20961e-13
5.19063e-13
4.07148e-13
5.47127e-13
7.40037e-13
6.48938e-13
5.64001e-13
1.42375e-13
5.59899e-13
4.276e-13
4.37821e-13
3.69272e-13
4.87647e-13
4.74003e-13
5.27892e-13
5.58469e-13
1.47278e-13
5.65224e-13
3.73167e-13
3.70998e-13
3.54992e-13
3.17503e-13
4.01272e-13
4.17594e-13
6.3131e-13
7.62109e-13
1.47908e-13
5.6096e-13
3.73737e-13
3.22414e-13
3.39178e-13
2.90856e-13
2.86846e-13
3.45815e-13
4.34251e-13
5.57216e-13
6.42384e-13
1.46736e-13
5.58045e-13
3.82701e-13
3.86603e-13
3.11955e-13
3.16907e-13
2.86791e-13
3.2278e-13
3.29107e-13
3.92665e-13
4.62833e-13
6.65261e-13
1.41363e-13
4.8467e-13
4.24854e-13
3.69236e-13
4.30899e-13
3.17103e-13
3.06269e-13
3.00922e-13
3.93414e-13
3.21947e-13
3.71233e-13
4.47784e-13
4.58108e-13
1.42662e-13
4.90907e-13
3.86537e-13
3.81424e-13
3.8848e-13
4.10557e-13
3.24742e-13
2.69422e-13
2.97984e-13
4.98469e-13
3.14283e-13
3.80625e-13
5.27804e-13
3.18722e-13
1.37562e-13
6.83011e-13
3.25395e-13
3.89042e-13
3.6548e-13
3.78079e-13
3.63548e-13
3.26306e-13
2.67491e-13
3.33885e-13
4.65808e-13
3.50451e-13
3.39084e-13
4.77335e-13
4.20194e-13
1.30607e-13
6.57714e-13
4.1102e-13
3.15594e-13
3.6901e-13
3.66195e-13
3.74636e-13
3.19737e-13
3.21607e-13
3.78753e-13
3.38387e-13
4.57099e-13
4.02657e-13
3.19755e-13
4.34707e-13
4.96956e-13
1.36637e-13
5.86648e-13
4.16787e-13
3.35738e-13
3.01756e-13
3.58358e-13
3.47248e-13
3.61495e-13
3.40968e-13
3.44484e-13
6.06326e-13
3.86973e-13
4.01519e-13
3.73735e-13
3.92852e-13
4.14401e-13
5.52607e-13
1.38399e-13
3.58053e-13
4.0289e-13
3.34833e-13
3.48514e-13
2.83949e-13
3.36298e-13
3.27084e-13
3.48184e-13
3.55161e-13
3.76554e-13
5.71602e-13
4.26204e-13
3.30839e-13
3.41204e-13
3.79523e-13
4.26384e-13
5.31712e-13
1.33152e-13
5.52662e-13
3.05205e-13
3.06686e-13
4.06413e-13
3.41156e-13
3.19175e-13
3.31922e-13
3.49603e-13
3.56017e-13
3.55021e-13
3.56732e-13
4.24037e-13
3.49477e-13
3.52753e-13
3.95834e-13
3.83514e-13
4.29607e-13
4.2571e-13
1.29037e-13
6.56586e-13
3.68564e-13
2.67322e-13
2.86383e-13
4.31712e-13
4.0163e-13
3.38008e-13
3.54829e-13
3.29544e-13
3.42378e-13
3.47852e-13
3.83581e-13
3.8131e-13
3.72884e-13
3.70939e-13
5.5484e-13
4.17939e-13
6.10016e-13
4.49757e-13
1.28792e-13
8.51139e-13
5.98933e-13
3.26236e-13
2.34762e-13
3.40121e-13
3.54219e-13
4.29278e-13
4.41778e-13
3.67634e-13
3.46631e-13
3.42954e-13
3.5481e-13
3.62585e-13
4.01886e-13
4.44397e-13
3.76213e-13
8.38937e-13
4.73676e-13
4.30014e-13
6.28823e-13
1.26832e-13
4.9162e-13
5.07494e-13
4.80365e-13
4.16699e-13
2.05412e-13
2.84611e-13
3.67938e-13
4.13813e-13
4.72959e-13
3.52757e-13
3.34417e-13
3.39377e-13
3.47478e-13
3.61496e-13
3.23491e-13
3.86096e-13
4.76958e-13
8.14979e-13
5.35601e-13
3.80301e-13
5.88035e-13
1.22371e-13
5.06844e-13
4.55354e-13
9.12652e-13
3.2671e-13
3.81382e-13
2.32712e-13
3.19999e-13
3.75483e-13
3.84235e-13
3.76048e-13
3.20179e-13
3.36616e-13
3.36069e-13
3.46497e-13
3.46506e-13
2.85858e-13
3.4135e-13
4.98725e-13
5.88128e-13
5.01332e-13
3.29862e-13
5.92238e-13
1.16349e-13
7.62342e-13
4.0622e-13
7.02867e-13
5.72508e-13
3.50242e-13
3.45457e-13
2.59185e-13
3.39925e-13
3.8223e-13
4.21087e-13
3.27721e-13
3.21164e-13
3.28484e-13
3.32733e-13
3.41125e-13
3.30472e-13
3.16024e-13
3.40582e-13
5.05039e-13
6.8216e-13
5.02096e-13
3.84906e-13
3.28549e-13
1.14696e-13
6.19892e-13
4.72363e-13
3.7144e-13
6.09573e-13
4.59262e-13
3.06228e-13
3.09177e-13
2.96478e-13
3.3051e-13
5.24195e-13
4.81788e-13
3.21923e-13
3.29764e-13
3.28632e-13
3.30472e-13
3.33722e-13
3.24007e-13
3.31946e-13
3.69418e-13
4.74416e-13
8.45146e-13
7.5457e-13
5.03194e-13
4.42421e-13
1.18053e-13
6.15584e-13
1.26761e-12
4.04308e-13
2.70964e-13
3.75872e-13
4.12579e-13
3.30146e-13
2.68041e-13
3.26347e-13
3.23732e-13
7.16544e-13
4.73372e-13
2.99129e-13
3.43869e-13
3.25454e-13
3.25305e-13
3.28401e-13
3.23288e-13
3.26102e-13
3.76922e-13
4.67249e-13
5.15616e-13
7.27852e-13
6.49835e-13
6.17102e-13
1.12172e-13
5.48565e-13
4.8318e-13
8.65078e-13
4.50082e-13
2.54432e-13
3.18644e-13
5.58358e-13
3.22453e-13
2.41303e-13
3.58508e-13
3.98331e-13
6.51864e-13
3.57444e-13
3.07827e-13
3.32691e-13
3.24248e-13
3.23153e-13
3.26587e-13
3.21514e-13
3.21505e-13
3.54748e-13
4.75538e-13
5.11049e-13
5.39876e-13
4.74649e-13
5.94157e-13
1.11349e-13
6.12699e-13
4.11807e-13
7.52224e-13
7.62211e-13
5.09686e-13
2.62094e-13
3.19465e-13
6.43182e-13
3.32467e-13
2.64448e-13
2.38179e-13
4.43318e-13
4.96351e-13
2.76963e-13
3.24893e-13
3.37453e-13
3.20534e-13
3.18742e-13
3.2064e-13
3.17724e-13
3.27002e-13
3.65704e-13
4.31619e-13
7.37574e-13
5.48721e-13
5.87173e-13
3.30419e-13
1.10054e-13
8.6789e-13
5.07399e-13
4.44224e-13
4.41517e-13
2.24114e-12
5.29454e-13
2.74055e-13
2.66642e-13
7.0641e-13
4.01497e-13
2.85281e-13
2.58453e-13
5.01593e-13
3.75627e-13
2.66236e-13
3.25704e-13
3.24493e-13
3.18598e-13
3.16384e-13
3.18967e-13
3.1666e-13
3.19803e-13
3.52554e-13
3.69981e-13
3.03905e-13
3.81221e-13
5.32259e-13
3.80713e-13
1.03203e-13
1.57295e-12
5.98929e-13
4.5438e-13
4.24438e-13
3.62668e-13
6.51547e-13
5.19326e-13
2.75107e-13
2.81019e-13
4.79099e-13
4.36131e-13
2.60201e-13
3.97973e-13
7.31404e-13
3.71941e-13
3.31467e-13
3.1784e-13
3.25719e-13
3.15e-13
3.12886e-13
3.14098e-13
3.12451e-13
3.19486e-13
3.47937e-13
3.3449e-13
2.81544e-13
3.25891e-13
2.88434e-13
5.58576e-13
1.03866e-13
3.69419e-13
8.65314e-13
6.95328e-13
4.01455e-13
3.22819e-13
4.3472e-13
6.08823e-13
4.40638e-13
2.29302e-13
2.34554e-13
6.44524e-13
5.27923e-13
4.90125e-13
4.70226e-13
6.01311e-13
3.52374e-13
3.33434e-13
3.18114e-13
3.17206e-13
3.12609e-13
3.09991e-13
3.10913e-13
3.09801e-13
3.15096e-13
3.36328e-13
3.13696e-13
2.33225e-13
3.14611e-13
3.20766e-13
2.79016e-13
9.86397e-14
3.04845e-13
3.21814e-13
6.52988e-13
5.24584e-13
6.06444e-13
2.73674e-13
3.00155e-13
6.32028e-13
6.15235e-13
2.37796e-13
2.23985e-13
4.11776e-13
6.39788e-13
5.75277e-13
4.12023e-13
3.70083e-13
3.20664e-13
3.23331e-13
3.13643e-13
3.15823e-13
3.0916e-13
3.0619e-13
3.06698e-13
3.06598e-13
3.11739e-13
3.26991e-13
3.0976e-13
2.42131e-13
2.9703e-13
3.67008e-13
3.69724e-13
1.04477e-13
4.77339e-13
3.71704e-13
3.0847e-13
6.06326e-13
4.96918e-13
5.88556e-13
2.21655e-13
2.32786e-13
4.37361e-13
6.782e-13
2.54034e-13
2.07545e-13
3.60035e-13
4.46261e-13
5.9875e-13
3.92959e-13
2.96753e-13
3.37695e-13
3.2356e-13
3.12278e-13
3.10872e-13
3.05685e-13
3.02841e-13
3.03618e-13
3.03345e-13
3.07606e-13
3.18881e-13
3.01325e-13
3.36709e-13
3.42968e-13
3.85435e-13
2.87512e-13
1.05867e-13
3.41785e-13
5.60755e-13
3.96238e-13
2.25903e-13
4.66798e-13
3.7332e-13
2.9742e-13
1.84099e-13
2.70031e-13
8.94182e-13
1.64383e-12
3.36462e-13
2.25689e-13
4.62145e-13
3.61879e-13
3.74287e-13
2.84699e-13
3.06583e-13
3.34034e-13
3.17203e-13
3.11736e-13
3.07333e-13
3.02125e-13
2.997e-13
2.99928e-13
2.99611e-13
3.03799e-13
3.12671e-13
3.12455e-13
3.11919e-13
3.32497e-13
3.15164e-13
2.48911e-13
1.02598e-13
2.07208e-13
2.91398e-13
5.11605e-13
8.38383e-13
2.61903e-13
3.72272e-13
3.08673e-13
2.72074e-13
1.71533e-13
4.2638e-13
7.54492e-13
1.60242e-12
3.72437e-13
3.03741e-13
4.6459e-13
5.53364e-13
5.42859e-13
4.10126e-13
2.77739e-13
3.31237e-13
3.18623e-13
3.06928e-13
3.03445e-13
2.99005e-13
2.96403e-13
2.96108e-13
2.96163e-13
3.00166e-13
3.08111e-13
3.07295e-13
3.28156e-13
3.28894e-13
3.51678e-13
4.35265e-13
9.838e-14
7.72727e-13
2.20226e-13
2.6301e-13
4.85171e-13
1.50235e-12
2.95777e-13
3.28864e-13
3.59807e-13
3.49861e-13
1.68104e-13
3.59653e-13
5.54031e-13
5.38906e-13
4.09097e-13
2.63944e-13
6.41648e-13
9.0113e-13
4.83202e-13
3.0464e-13
2.69077e-13
3.39473e-13
3.14008e-13
3.054e-13
3.00072e-13
2.95612e-13
2.92685e-13
2.92511e-13
2.92743e-13
2.96351e-13
3.04043e-13
3.05526e-13
3.13881e-13
3.15863e-13
3.21148e-13
3.63526e-13
9.85874e-14
1.14019e-12
5.90069e-13
2.89833e-13
1.87078e-13
3.58848e-13
7.47822e-13
3.09286e-13
3.253e-13
3.84284e-13
3.22338e-13
1.63616e-13
2.96393e-13
2.74262e-13
3.71793e-13
4.474e-13
3.19505e-13
4.77424e-13
4.83632e-13
2.78423e-13
2.75777e-13
3.34829e-13
3.31888e-13
3.11036e-13
3.01319e-13
2.96593e-13
2.91852e-13
2.8928e-13
2.89012e-13
2.89167e-13
2.93116e-13
3.00173e-13
3.01438e-13
3.12401e-13
3.28661e-13
3.0852e-13
3.59867e-13
9.73856e-14
1.77532e-12
5.39123e-13
3.94492e-13
4.24705e-13
2.19183e-13
3.68899e-13
2.02002e-12
2.93369e-13
2.99358e-13
4.29478e-13
3.95945e-13
1.65765e-13
1.47946e-13
1.94665e-13
4.69587e-13
4.18182e-13
5.97528e-13
5.16117e-13
5.31393e-13
3.51e-13
3.35022e-13
3.28347e-13
3.21229e-13
3.07229e-13
2.98702e-13
2.92672e-13
2.88383e-13
2.8589e-13
2.85361e-13
2.86103e-13
2.89945e-13
2.95676e-13
2.97347e-13
3.08217e-13
3.23185e-13
3.96559e-13
3.62065e-13
9.54973e-14
6.51458e-13
5.27132e-13
4.59186e-13
3.87109e-13
4.20739e-13
3.79847e-13
3.51807e-13
9.96972e-13
2.69436e-13
2.14177e-13
4.93423e-13
5.24514e-13
1.66928e-13
1.42187e-13
1.92387e-13
6.70367e-13
6.94369e-13
1.25123e-12
7.05046e-13
4.78867e-13
3.03794e-13
3.47944e-13
3.13724e-13
3.17098e-13
3.03488e-13
2.94528e-13
2.8914e-13
2.8494e-13
2.82353e-13
2.82242e-13
2.83143e-13
2.86026e-13
2.91044e-13
2.94041e-13
3.05636e-13
3.19306e-13
3.43969e-13
3.48541e-13
9.4557e-14
1.18387e-12
7.43247e-13
3.04733e-13
1.77777e-12
4.19296e-13
3.15267e-13
3.67953e-13
2.39875e-13
3.15046e-13
2.43808e-13
1.73278e-13
5.3689e-13
1.11897e-12
2.52105e-13
2.18313e-13
2.16034e-13
5.91245e-13
1.05062e-12
7.40658e-13
3.4395e-13
3.69979e-13
2.77751e-13
3.44718e-13
3.17406e-13
3.0979e-13
2.99119e-13
2.91184e-13
2.85582e-13
2.81357e-13
2.79311e-13
2.79255e-13
2.79384e-13
2.81836e-13
2.87117e-13
2.90582e-13
3.0158e-13
3.1549e-13
3.48816e-13
3.45676e-13
9.30377e-14
3.16084e-13
7.78001e-13
3.55087e-13
6.95544e-13
1.10507e-12
6.732e-13
2.46808e-13
3.68022e-13
2.63741e-13
3.22076e-13
2.2308e-13
1.84788e-13
9.21251e-13
3.60962e-13
3.42538e-13
2.55621e-13
3.2142e-13
6.34325e-13
1.08658e-12
9.16499e-13
2.57648e-13
2.49872e-13
3.02031e-13
3.27593e-13
3.10377e-13
3.05172e-13
2.95139e-13
2.87473e-13
2.81921e-13
2.78269e-13
2.76397e-13
2.75466e-13
2.75329e-13
2.78308e-13
2.83357e-13
2.87182e-13
2.98059e-13
3.10386e-13
3.36147e-13
3.37827e-13
9.18539e-14
2.07489e-13
3.05476e-13
3.69428e-13
3.60282e-13
1.62238e-12
5.01308e-13
9.03956e-13
2.37603e-13
2.25547e-13
3.5052e-13
3.0821e-13
2.29166e-13
1.94557e-13
4.4022e-13
3.0199e-13
2.71859e-13
3.60122e-13
4.68462e-13
9.85754e-13
6.7498e-13
7.45111e-13
2.99953e-13
2.47775e-13
3.16311e-13
3.32645e-13
3.09441e-13
3.00067e-13
2.91087e-13
2.83748e-13
2.78732e-13
2.75311e-13
2.72668e-13
2.71376e-13
2.71938e-13
2.74913e-13
2.79614e-13
2.83684e-13
2.94138e-13
3.06118e-13
3.31273e-13
3.32344e-13
9.05477e-14
9.91196e-14
1.79887e-13
2.52994e-13
8.9136e-13
1.34269e-12
1.4971e-12
5.08495e-13
3.17786e-13
3.42534e-13
3.66711e-13
4.55389e-13
2.83426e-13
2.68966e-13
2.51015e-13
4.20633e-13
9.31296e-13
6.00168e-13
4.56999e-13
8.63416e-13
1.0481e-12
4.01369e-13
4.63688e-13
3.10902e-13
2.5528e-13
3.28697e-13
3.19819e-13
3.04171e-13
2.95592e-13
2.8694e-13
2.80396e-13
2.7567e-13
2.71552e-13
2.68622e-13
2.67968e-13
2.68693e-13
2.71471e-13
2.75888e-13
2.80201e-13
2.90331e-13
3.01594e-13
3.23845e-13
3.26104e-13
8.93251e-14
1.11038e-12
1.14008e-13
2.43834e-13
8.01444e-13
4.61702e-13
6.85021e-13
8.07676e-13
3.72401e-13
2.27451e-13
3.47578e-13
2.4924e-13
2.59574e-13
2.13804e-13
3.19148e-13
2.47094e-13
4.65859e-13
1.04031e-12
5.19139e-13
3.2867e-13
5.27778e-13
4.66299e-13
5.72171e-13
2.84401e-13
3.13189e-13
2.49622e-13
3.14991e-13
3.15684e-13
3.0028e-13
2.90936e-13
2.83256e-13
2.77169e-13
2.7181e-13
2.67468e-13
2.65245e-13
2.64727e-13
2.65388e-13
2.67998e-13
2.72204e-13
2.76704e-13
2.86524e-13
2.97366e-13
3.17784e-13
3.20596e-13
8.80972e-14
1.48945e-13
6.38333e-13
1.51036e-13
2.55145e-13
7.76478e-13
8.65003e-13
3.87968e-13
1.34448e-12
4.80769e-13
3.41005e-13
1.17521e-12
1.88898e-13
2.24374e-13
1.97526e-13
2.9855e-13
1.97689e-13
4.64894e-13
4.09753e-13
4.35828e-13
3.03356e-13
5.05183e-13
4.13834e-13
3.54418e-13
2.80945e-13
3.21955e-13
2.88924e-13
3.15361e-13
3.06906e-13
2.95221e-13
2.86874e-13
2.79681e-13
2.73127e-13
2.67626e-13
2.64052e-13
2.6203e-13
2.61428e-13
2.62037e-13
2.64523e-13
2.6857e-13
2.73306e-13
2.82834e-13
2.93058e-13
3.11808e-13
3.14761e-13
8.69018e-14
1.31653e-13
1.73776e-13
3.70619e-13
2.91307e-13
2.0406e-13
5.99943e-13
1.41018e-12
8.21491e-13
1.19575e-12
1.16357e-12
1.9973e-13
4.62328e-13
1.47022e-13
2.00998e-13
1.88077e-13
2.71939e-13
2.37267e-13
3.66352e-13
4.39355e-13
3.02026e-13
3.98623e-13
4.31203e-13
5.21622e-13
1.92179e-13
3.13857e-13
3.24184e-13
3.13634e-13
3.05704e-13
3.01042e-13
2.90959e-13
2.8292e-13
2.75351e-13
2.68772e-13
2.64086e-13
2.60781e-13
2.58752e-13
2.58085e-13
2.58671e-13
2.61067e-13
2.65089e-13
2.70017e-13
2.79079e-13
2.89039e-13
3.05892e-13
3.09244e-13
8.57252e-14
9.60846e-14
1.51534e-13
1.93604e-13
3.61165e-13
2.60002e-13
1.9272e-13
3.39668e-13
1.30768e-12
7.07292e-13
4.15358e-13
3.10691e-13
1.6113e-13
3.7592e-13
1.57207e-13
2.67569e-13
3.71629e-13
2.54389e-13
5.24376e-13
3.12381e-13
5.19337e-13
3.69431e-13
4.64205e-13
4.04893e-13
7.61379e-13
2.66777e-13
3.05749e-13
3.27095e-13
3.05851e-13
2.9859e-13
2.9529e-13
2.8658e-13
2.78285e-13
2.70737e-13
2.65032e-13
2.60689e-13
2.57455e-13
2.55418e-13
2.54725e-13
2.55313e-13
2.57748e-13
2.61772e-13
2.66675e-13
2.75537e-13
2.84752e-13
3.0017e-13
3.04256e-13
8.45592e-14
1.14311e-13
8.88741e-14
5.06394e-13
2.0528e-13
3.54096e-13
4.64039e-13
2.6641e-13
8.942e-13
9.55146e-13
2.75059e-13
3.68494e-13
3.57105e-13
1.47587e-13
5.18338e-13
1.15404e-13
4.71185e-13
2.29247e-13
3.00445e-13
5.36264e-13
3.6467e-13
5.89483e-13
5.89517e-13
4.5574e-13
9.53649e-13
3.01351e-13
2.70966e-13
3.13732e-13
3.18936e-13
2.99453e-13
2.97335e-13
2.90255e-13
2.81645e-13
2.7341e-13
2.6675e-13
2.61445e-13
2.57235e-13
2.54057e-13
2.52058e-13
2.51374e-13
2.5209e-13
2.54584e-13
2.5843e-13
2.63527e-13
2.71712e-13
2.80466e-13
2.9517e-13
2.98755e-13
8.34159e-14
3.90557e-13
1.09304e-13
9.98495e-14
6.52547e-13
1.59742e-13
4.24304e-13
6.67352e-13
2.97461e-13
6.16847e-13
1.55105e-12
2.84391e-13
3.24712e-13
3.01361e-13
1.33879e-13
1.60638e-12
1.10675e-13
5.5831e-13
2.39651e-13
3.24301e-13
5.62296e-13
4.04539e-13
2.74016e-13
4.74836e-13
3.60464e-13
2.40274e-13
1.99146e-13
3.14055e-13
3.09726e-13
3.0786e-13
3.02236e-13
2.90356e-13
2.84822e-13
2.76477e-13
2.69175e-13
2.62922e-13
2.57798e-13
2.53718e-13
2.50635e-13
2.48699e-13
2.48162e-13
2.49016e-13
2.51378e-13
2.55313e-13
2.60084e-13
2.67793e-13
2.76775e-13
2.89767e-13
2.93668e-13
8.22916e-14
3.74069e-13
3.34248e-13
7.8827e-14
1.8964e-13
2.82931e-11
1.56164e-13
3.22955e-13
2.85585e-13
2.97465e-13
1.1044e-12
3.81238e-13
3.67355e-13
2.14694e-13
1.83459e-13
9.44399e-14
2.4929e-13
1.58107e-13
7.06196e-13
4.55097e-13
2.85204e-13
2.22117e-13
2.12865e-13
2.64207e-13
4.60042e-13
4.13934e-13
1.65601e-13
2.65554e-13
3.22839e-13
3.11912e-13
3.05435e-13
2.92193e-13
2.87065e-13
2.79348e-13
2.71977e-13
2.65105e-13
2.59069e-13
2.54114e-13
2.50165e-13
2.47203e-13
2.45474e-13
2.45099e-13
2.45896e-13
2.48387e-13
2.51913e-13
2.56485e-13
2.6451e-13
2.72638e-13
2.84697e-13
2.89173e-13
8.11837e-14
2.22331e-13
2.85242e-13
2.46216e-13
8.55335e-14
2.36783e-13
7.21067e-13
1.42823e-13
2.32974e-13
4.57885e-13
2.53824e-13
2.82815e-13
5.1114e-13
2.64742e-13
2.65445e-13
1.84456e-13
1.00108e-13
1.66446e-13
1.73829e-13
2.14042e-13
5.88925e-13
2.11126e-13
4.71467e-13
3.52872e-13
7.87553e-13
3.27908e-13
2.28203e-13
2.26604e-13
3.08183e-13
3.14561e-13
3.08669e-13
2.98635e-13
2.91094e-13
2.81075e-13
2.74603e-13
2.67641e-13
2.61052e-13
2.55199e-13
2.50392e-13
2.46617e-13
2.43902e-13
2.4239e-13
2.41994e-13
2.42984e-13
2.45097e-13
2.4834e-13
2.53555e-13
2.60807e-13
2.68595e-13
2.80422e-13
2.84268e-13
8.01085e-14
2.09923e-13
2.19379e-13
2.2575e-13
1.42382e-13
1.0459e-13
2.61716e-13
7.40867e-13
1.40059e-13
2.4211e-13
2.9188e-13
2.95871e-13
1.80223e-13
2.76236e-13
2.16238e-13
2.11029e-13
2.81834e-13
1.22993e-13
1.03181e-13
4.30238e-13
8.21993e-13
2.96495e-13
5.66156e-13
4.47724e-13
6.64699e-13
2.82456e-13
2.74637e-13
2.32141e-13
3.4505e-13
3.15771e-13
3.1355e-13
3.01473e-13
2.94046e-13
2.83793e-13
2.7688e-13
2.70043e-13
2.63359e-13
2.57002e-13
2.51331e-13
2.46707e-13
2.4319e-13
2.40736e-13
2.39266e-13
2.39093e-13
2.39766e-13
2.41602e-13
2.45493e-13
2.50218e-13
2.57092e-13
2.65379e-13
2.75677e-13
2.7957e-13
7.90464e-14
8.51539e-14
1.98391e-13
2.609e-13
5.43322e-13
1.59833e-13
1.08235e-13
3.72128e-13
4.85088e-13
5.97278e-13
3.7462e-13
2.74535e-13
2.46254e-13
1.71999e-13
2.30209e-13
1.90322e-13
1.88039e-13
3.96391e-13
1.55431e-13
1.00241e-13
2.49675e-13
2.99565e-13
9.62946e-13
3.20188e-13
5.35416e-13
1.1755e-12
2.54438e-13
6.99833e-13
4.09922e-13
3.9981e-13
3.12248e-13
3.05835e-13
2.98331e-13
2.88154e-13
2.80076e-13
2.72174e-13
2.65575e-13
2.59094e-13
2.52973e-13
2.47522e-13
2.43157e-13
2.3991e-13
2.37538e-13
2.36337e-13
2.35884e-13
2.36319e-13
2.38856e-13
2.42268e-13
2.46791e-13
2.54312e-13
2.61538e-13
2.7095e-13
2.75133e-13
7.79908e-14
7.33737e-14
7.32249e-14
2.01702e-13
3.03116e-13
3.64965e-13
2.86524e-13
1.54409e-13
1.29415e-12
4.08013e-13
5.76377e-13
2.89574e-13
2.2234e-13
2.85731e-13
1.38256e-13
3.4328e-13
2.15606e-13
2.15688e-13
1.69164e-13
1.92868e-13
1.65362e-13
2.62745e-13
4.36085e-13
2.6809e-13
3.97169e-13
5.25488e-13
7.98747e-13
2.31929e-13
4.24909e-13
2.5502e-13
3.20998e-13
3.13246e-13
3.02433e-13
2.91448e-13
2.83268e-13
2.74913e-13
2.67745e-13
2.6114e-13
2.54858e-13
2.49008e-13
2.43861e-13
2.39767e-13
2.36606e-13
2.3453e-13
2.331e-13
2.32441e-13
2.33638e-13
2.35739e-13
2.38911e-13
2.44375e-13
2.50828e-13
2.57425e-13
2.66617e-13
2.70574e-13
7.6951e-14
8.65588e-14
6.76624e-14
7.65546e-14
2.00639e-13
9.43478e-13
1.6213e-13
2.11943e-13
1.74173e-13
3.69051e-13
1.02609e-12
4.47906e-13
4.09729e-13
1.3377e-13
2.06952e-13
1.37971e-13
2.26303e-13
1.56906e-13
1.51729e-13
1.61456e-13
1.74003e-13
2.69982e-13
2.79518e-13
7.74187e-13
2.3879e-13
1.99004e-13
2.52099e-13
2.67797e-13
1.89042e-13
2.45522e-13
2.64628e-13
3.29949e-13
3.05637e-13
2.955e-13
2.86949e-13
2.78237e-13
2.70426e-13
2.63209e-13
2.56741e-13
2.50701e-13
2.45189e-13
2.40355e-13
2.36378e-13
2.33506e-13
2.31222e-13
2.29632e-13
2.29767e-13
2.30587e-13
2.32451e-13
2.36648e-13
2.4119e-13
2.46886e-13
2.53738e-13
2.62296e-13
2.66633e-13
7.59339e-14
8.30824e-14
1.40829e-13
6.41983e-14
9.19294e-14
1.61842e-13
4.7029e-13
1.29808e-13
1.39466e-13
1.06874e-13
2.38133e-13
2.12762e-13
3.00959e-13
2.80916e-13
1.26026e-13
1.59099e-13
1.20049e-13
1.63756e-13
2.16695e-13
1.31387e-13
4.2685e-13
2.97931e-13
3.74778e-13
2.59453e-13
4.06394e-13
4.12863e-13
2.04989e-13
5.2754e-13
4.03949e-13
2.90682e-13
1.74663e-13
3.44274e-13
3.12348e-13
3.01168e-13
2.90705e-13
2.81439e-13
2.73328e-13
2.65665e-13
2.58719e-13
2.52434e-13
2.46691e-13
2.41515e-13
2.36881e-13
2.33191e-13
2.30108e-13
2.27699e-13
2.26924e-13
2.26729e-13
2.27343e-13
2.30306e-13
2.33579e-13
2.37401e-13
2.43447e-13
2.50124e-13
2.58658e-13
2.62492e-13
7.49368e-14
2.39579e-14
1.03401e-13
2.79289e-13
7.60366e-14
1.08577e-13
1.84464e-13
2.14013e-13
3.05458e-13
8.11739e-14
1.63014e-13
1.61876e-13
2.28842e-13
3.82714e-13
2.41231e-13
1.37457e-13
2.37596e-13
1.3253e-13
3.15516e-13
2.89004e-13
1.59901e-13
1.53499e-13
4.93036e-13
3.61794e-13
6.51995e-13
9.74605e-13
6.20105e-13
1.74222e-13
3.7842e-13
4.39453e-13
4.28076e-13
2.32248e-13
3.25777e-13
3.08932e-13
2.94585e-13
2.84971e-13
2.76424e-13
2.68409e-13
2.61016e-13
2.54295e-13
2.48265e-13
2.42818e-13
2.37879e-13
2.33578e-13
2.29728e-13
2.26529e-13
2.24924e-13
2.23861e-13
2.2349e-13
2.25265e-13
2.27326e-13
2.29811e-13
2.34169e-13
2.40175e-13
2.47184e-13
2.5477e-13
2.584e-13
7.39649e-14
4.42497e-14
2.73365e-14
1.05461e-13
1.07257e-13
2.08892e-13
1.26731e-13
4.95786e-13
3.00179e-13
2.71378e-13
6.02286e-14
2.81888e-13
1.45989e-13
2.98695e-13
2.59842e-13
1.48172e-13
1.79285e-13
5.29768e-13
1.36778e-13
5.36259e-13
2.71323e-13
1.72536e-13
1.422e-13
1.28379e-12
1.66739e-13
2.68713e-13
3.95505e-13
7.81695e-13
1.60574e-13
1.66939e-13
2.75541e-13
4.75282e-13
3.45894e-13
3.09679e-13
2.99299e-13
2.89115e-13
2.79662e-13
2.71228e-13
2.63514e-13
2.56418e-13
2.49996e-13
2.44234e-13
2.39003e-13
2.34401e-13
2.30012e-13
2.26096e-13
2.23675e-13
2.21809e-13
2.20596e-13
2.21423e-13
2.2234e-13
2.23576e-13
2.26649e-13
2.31176e-13
2.37612e-13
2.43891e-13
2.5079e-13
2.5444e-13
7.2994e-14
4.03989e-14
4.58513e-14
4.02849e-14
9.37563e-14
1.21862e-13
1.73998e-13
1.63559e-13
3.62407e-13
1.3339e-13
3.65383e-13
4.82731e-14
2.31767e-13
1.1161e-13
2.57554e-13
2.11725e-13
1.44517e-13
1.31354e-13
2.39089e-13
2.98589e-13
2.21055e-13
2.32929e-13
1.60126e-13
1.62202e-13
5.1317e-13
2.65954e-13
3.72507e-13
1.01608e-12
2.8683e-13
2.78676e-13
1.45259e-13
1.47972e-13
3.15464e-13
3.11693e-13
3.07424e-13
2.93872e-13
2.83105e-13
2.74208e-13
2.66127e-13
2.58726e-13
2.51948e-13
2.45819e-13
2.40278e-13
2.35347e-13
2.30662e-13
2.26294e-13
2.23173e-13
2.20499e-13
2.18502e-13
2.18499e-13
2.18506e-13
2.18596e-13
2.20457e-13
2.23794e-13
2.28916e-13
2.3464e-13
2.40316e-13
2.4692e-13
2.50775e-13
7.20434e-14
4.68375e-13
3.89648e-14
7.46249e-14
3.80925e-14
1.48851e-13
3.40173e-13
5.05147e-13
3.23673e-13
2.60334e-13
6.13215e-14
2.0992e-13
6.31366e-14
8.62709e-13
9.84053e-14
2.48688e-13
1.73113e-13
1.61131e-13
1.80682e-13
2.39756e-13
2.4344e-13
1.64385e-13
4.92482e-13
2.06965e-13
1.22846e-13
1.05616e-12
2.8104e-13
2.72831e-13
4.63469e-13
3.0339e-13
3.08247e-13
1.76377e-13
1.97566e-13
3.25719e-13
3.04709e-13
2.96227e-13
2.86724e-13
2.77399e-13
2.6884e-13
2.61119e-13
2.54052e-13
2.4759e-13
2.4173e-13
2.36472e-13
2.3144e-13
2.26804e-13
2.23242e-13
2.19922e-13
2.17149e-13
2.16349e-13
2.15558e-13
2.14749e-13
2.155e-13
2.17693e-13
2.21696e-13
2.26199e-13
2.31243e-13
2.3679e-13
2.43508e-13
2.47286e-13
7.11082e-14
3.49193e-14
1.84467e-13
3.33688e-14
8.18023e-14
4.56939e-14
1.25655e-13
2.52563e-13
3.76407e-13
1.92482e-13
1.78251e-13
6.6677e-14
2.49211e-13
7.85505e-14
6.45499e-13
7.82949e-14
2.68897e-13
4.32912e-13
1.32303e-13
1.51375e-13
1.67897e-13
1.36896e-13
2.95483e-13
3.95476e-13
5.72019e-13
1.72558e-13
4.12035e-13
9.87289e-13
6.61018e-13
4.41971e-13
5.7329e-13
3.84823e-13
2.50258e-13
3.48805e-13
3.08787e-13
3.02562e-13
2.90902e-13
2.80715e-13
2.71648e-13
2.6359e-13
2.56236e-13
2.49495e-13
2.43343e-13
2.37781e-13
2.32432e-13
2.27461e-13
2.23565e-13
2.19854e-13
2.16512e-13
2.1492e-13
2.13368e-13
2.11777e-13
2.11648e-13
2.12786e-13
2.15702e-13
2.1912e-13
2.22942e-13
2.27864e-13
2.33851e-13
2.40322e-13
2.43618e-13
7.01973e-14
3.88279e-14
3.45813e-14
6.46142e-14
3.63518e-14
5.73648e-14
6.77789e-14
3.01534e-12
1.28207e-13
1.13106e-13
1.02371e-13
1.14131e-13
8.34228e-14
4.0852e-13
8.29434e-14
2.95144e-13
7.39532e-14
2.38499e-13
2.22089e-13
2.23549e-13
1.86744e-13
1.63485e-13
1.82311e-13
2.29648e-13
4.86507e-13
2.19817e-13
1.789e-13
1.22328e-13
6.86353e-13
6.67764e-13
2.76509e-13
4.22805e-13
4.23806e-13
3.31955e-13
2.99862e-13
3.03518e-13
2.91642e-13
2.83397e-13
2.74445e-13
2.66116e-13
2.58469e-13
2.51465e-13
2.45073e-13
2.39229e-13
2.33609e-13
2.2836e-13
2.24074e-13
2.20021e-13
2.16327e-13
2.14174e-13
2.11889e-13
2.09563e-13
2.0865e-13
2.08944e-13
2.10857e-13
2.13217e-13
2.15919e-13
2.19679e-13
2.25211e-13
2.31156e-13
2.36837e-13
2.4017e-13
6.92989e-14
8.77508e-14
3.78372e-14
4.01967e-14
7.9271e-14
5.5428e-14
4.28916e-14
7.49145e-14
2.35942e-13
1.07119e-13
1.58195e-13
1.62554e-13
1.25035e-13
1.13523e-13
9.05332e-13
9.97547e-14
1.77169e-13
9.82965e-14
1.61277e-13
1.9557e-13
4.04188e-13
1.42146e-13
3.9772e-13
2.63882e-13
5.68588e-13
3.31854e-13
2.98583e-13
3.32402e-13
1.36161e-13
2.29013e-13
1.80052e-13
1.328e-13
2.80527e-13
4.55025e-13
3.1741e-13
3.0939e-13
2.95337e-13
2.86809e-13
2.77155e-13
2.68599e-13
2.60712e-13
2.53464e-13
2.46855e-13
2.40781e-13
2.34907e-13
2.29442e-13
2.24842e-13
2.20399e-13
2.1637e-13
2.1384e-13
2.11057e-13
2.08048e-13
2.064e-13
2.05926e-13
2.07028e-13
2.08421e-13
2.10046e-13
2.12701e-13
2.1725e-13
2.22839e-13
2.28018e-13
2.3353e-13
2.36576e-13
6.84179e-14
3.29637e-14
7.30501e-14
5.9662e-14
3.48435e-14
2.92839e-13
6.93154e-14
6.10647e-14
9.45806e-14
9.97991e-14
1.32402e-13
1.22867e-13
2.29513e-13
1.19009e-13
8.82005e-14
1.03592e-13
1.21934e-13
1.39497e-13
1.36399e-13
1.69901e-13
1.13518e-13
8.66065e-13
2.1086e-13
5.59487e-13
5.26459e-13
2.16777e-13
3.41623e-13
8.72764e-13
2.65096e-13
1.56519e-13
1.68462e-13
2.49999e-13
2.10641e-13
1.41627e-13
3.33417e-13
3.14074e-13
2.96443e-13
2.88568e-13
2.79012e-13
2.70824e-13
2.62872e-13
2.55448e-13
2.48651e-13
2.42374e-13
2.36296e-13
2.30632e-13
2.25792e-13
2.21042e-13
2.16655e-13
2.13728e-13
2.10595e-13
2.07162e-13
2.04843e-13
2.03639e-13
2.03987e-13
2.04599e-13
2.05262e-13
2.06848e-13
2.104e-13
2.15131e-13
2.19912e-13
2.24988e-13
2.3004e-13
2.33851e-13
6.75466e-14
8.64939e-14
2.97269e-14
1.3685e-13
1.06212e-13
3.32762e-14
1.77256e-13
7.30064e-14
5.37412e-14
1.21597e-13
9.80147e-14
1.77621e-13
1.0412e-13
5.08946e-13
1.54767e-13
1.12928e-13
9.51787e-14
9.94684e-14
1.19468e-13
7.57523e-14
1.61922e-13
8.27342e-14
2.25342e-13
5.19128e-13
3.4688e-13
1.63777e-13
1.33493e-13
1.85538e-13
5.84992e-13
3.08159e-13
1.92312e-13
3.49179e-13
2.95191e-13
3.24758e-13
1.99076e-13
3.22877e-13
3.0184e-13
2.91683e-13
2.81256e-13
2.72937e-13
2.64856e-13
2.57335e-13
2.50413e-13
2.4397e-13
2.37717e-13
2.31904e-13
2.26838e-13
2.21866e-13
2.17212e-13
2.13871e-13
2.10366e-13
2.06638e-13
2.03883e-13
2.02017e-13
2.01653e-13
2.01537e-13
2.01432e-13
2.02067e-13
2.04624e-13
2.08438e-13
2.12369e-13
2.17038e-13
2.21721e-13
2.27525e-13
2.30329e-13
6.66968e-14
7.90163e-13
6.58925e-14
4.12768e-14
1.33223e-13
1.44319e-13
3.369e-14
8.54974e-14
1.27641e-13
3.80947e-14
1.34811e-13
7.15101e-14
1.37826e-13
1.86473e-13
2.27555e-13
1.175e-13
2.27416e-13
8.18187e-14
1.28948e-13
7.38059e-14
8.26884e-14
8.86667e-14
1.27113e-13
1.51176e-13
7.07573e-13
3.77031e-13
1.79136e-13
3.85419e-13
1.83131e-13
6.67643e-13
3.50515e-13
3.78363e-13
1.7869e-13
3.10468e-13
2.93942e-13
3.5677e-13
3.06043e-13
2.93716e-13
2.82743e-13
2.74551e-13
2.66508e-13
2.59033e-13
2.52067e-13
2.45521e-13
2.39133e-13
2.33199e-13
2.27957e-13
2.22778e-13
2.17946e-13
2.14286e-13
2.10409e-13
2.06352e-13
2.03267e-13
2.00971e-13
1.99963e-13
1.99163e-13
1.98349e-13
1.98226e-13
1.99883e-13
2.02761e-13
2.05772e-13
2.09609e-13
2.13894e-13
2.19519e-13
2.24213e-13
2.26937e-13
6.58636e-14
1.54349e-13
9.30348e-13
6.06245e-14
2.06116e-13
1.14345e-13
9.64047e-14
3.2239e-14
3.82328e-14
5.08164e-13
4.26863e-14
2.04475e-13
4.56959e-14
1.43029e-13
3.10288e-13
6.58091e-13
6.57867e-14
1.15817e-13
7.99323e-14
6.06941e-14
8.05987e-14
5.46003e-14
3.33222e-13
1.35019e-13
2.41269e-13
1.76341e-13
2.34687e-13
1.29634e-13
2.22751e-13
3.67831e-13
2.66989e-13
1.64697e-13
2.42905e-13
1.34195e-13
2.9328e-13
3.03728e-13
2.96498e-13
2.95509e-13
2.84508e-13
2.76115e-13
2.67974e-13
2.60508e-13
2.53549e-13
2.46962e-13
2.40499e-13
2.34484e-13
2.29095e-13
2.23757e-13
2.18762e-13
2.14877e-13
2.1072e-13
2.06344e-13
2.02909e-13
2.00263e-13
1.98814e-13
1.97404e-13
1.95947e-13
1.95125e-13
1.96047e-13
1.98072e-13
2.00154e-13
2.03072e-13
2.06559e-13
2.11911e-13
2.16509e-13
2.20808e-13
2.24377e-13
6.50266e-14
3.4921e-13
4.44224e-13
2.67107e-13
5.06386e-14
1.2831e-13
6.27054e-14
3.69226e-14
5.8962e-14
3.02707e-14
5.87035e-13
3.33775e-14
2.54252e-13
3.48101e-14
1.47949e-13
7.12477e-14
2.21524e-13
5.15967e-14
1.32294e-13
6.52366e-14
6.46729e-14
8.99358e-14
6.35879e-14
7.44323e-13
1.44286e-13
2.54608e-13
7.44192e-13
5.18399e-13
2.45561e-13
1.97779e-13
1.70267e-13
2.01261e-13
1.6475e-13
4.02603e-13
1.72209e-13
1.43912e-13
2.76159e-13
2.98658e-13
2.84999e-13
2.77061e-13
2.69045e-13
2.61687e-13
2.54798e-13
2.4824e-13
2.41755e-13
2.35715e-13
2.3022e-13
2.24749e-13
2.19639e-13
2.15547e-13
2.11204e-13
2.06603e-13
2.0283e-13
1.9981e-13
1.97993e-13
1.9617e-13
1.94151e-13
1.92698e-13
1.92922e-13
1.94248e-13
1.95496e-13
1.97485e-13
2.00068e-13
2.04743e-13
2.09114e-13
2.1316e-13
2.18445e-13
2.21333e-13
6.42221e-14
5.01518e-14
2.07003e-13
1.34965e-13
4.11854e-14
3.00038e-14
6.18702e-14
4.75267e-14
3.98567e-14
4.82399e-14
2.69273e-14
3.60852e-13
3.39559e-14
1.66098e-13
3.19492e-14
1.66236e-13
1.10976e-13
4.7627e-13
3.66585e-14
7.43609e-14
6.08822e-14
7.56654e-14
7.82639e-14
9.73518e-14
1.36035e-13
2.49566e-13
1.77046e-13
1.98776e-13
3.94709e-13
1.8905e-13
3.65046e-13
1.33049e-13
2.5845e-13
2.62881e-13
2.58684e-13
1.6247e-13
1.5429e-13
2.98535e-13
2.82456e-13
2.77473e-13
2.69719e-13
2.62572e-13
2.55802e-13
2.49311e-13
2.4286e-13
2.3684e-13
2.31293e-13
2.25729e-13
2.20526e-13
2.16276e-13
2.11767e-13
2.07038e-13
2.03013e-13
1.9963e-13
1.97435e-13
1.95258e-13
1.9286e-13
1.90865e-13
1.90451e-13
1.91104e-13
1.91673e-13
1.92833e-13
1.94502e-13
1.98357e-13
2.0211e-13
2.05763e-13
2.11064e-13
2.1569e-13
2.18288e-13
6.3432e-14
3.93305e-13
4.92475e-14
9.27645e-14
4.23626e-14
2.86389e-14
6.43406e-14
3.02018e-14
5.6512e-14
3.79316e-14
3.63481e-14
2.34095e-14
5.93585e-13
2.39456e-14
2.34056e-13
2.38041e-14
1.64669e-13
2.17874e-13
4.39611e-13
3.41657e-14
1.30781e-13
6.50644e-14
2.13092e-13
9.43185e-14
2.13397e-13
1.77635e-13
4.68297e-13
1.91676e-13
3.01293e-13
4.13044e-13
3.60556e-13
1.42174e-13
2.42621e-13