/*--------------------------------*- C++ -*----------------------------------*\
| =========                 |                                                 |
| \\      /  F ield         | OpenFOAM: The Open Source CFD Toolbox           |
|  \\    /   O peration     | Version:  2212                                  |
|   \\  /    A nd           | Website:  www.openfoam.com                      |
|    \\/     M anipulation  |                                                 |
\*---------------------------------------------------------------------------*/
FoamFile
{
    version     2.0;
    format      ascii;
    arch        "LSB;label=32;scalar=64";
    class       volScalarField;
    location    "20";
    object      p;
}
// * * * * * * * * * * * * * * * * * * * * * * * * * * * * * * * * * * * * * //

dimensions      [0 2 -2 0 0 0 0];

internalField   nonuniform List<scalar> 
165000
(
0.000104637
-6.68545e-05
0.000253603
0.000180481
5.16029e-05
0.000398796
0.000281287
0.000599734
0.000435559
0.000854671
0.00020716
0.000798558
0.00083072
0.000858631
0.00153817
0.000189521
0.000489145
0.00107865
0.000915178
0.00117384
0.00204683
0.000101623
0.00053095
0.000684349
0.00124959
0.00116299
0.0014126
0.00224146
3.53024e-05
0.000257521
0.000773573
0.000945819
0.0014576
0.00129432
0.00143341
0.00224352
-9.44259e-06
9.67818e-05
0.00042763
0.000691195
0.00106755
0.00141811
0.00112988
0.00119383
0.00200257
-4.44435e-05
3.94637e-05
0.000102792
0.000549424
0.000328792
0.00100969
0.00130942
0.000886809
0.00101469
0.00151883
-4.63595e-05
-7.24494e-05
-3.53437e-05
-6.64311e-07
0.000400156
-0.000140258
0.000871715
0.00104243
0.000807244
0.000861554
0.000895973
-9.50643e-05
-0.000101069
-9.06732e-05
-0.000207165
-0.000158672
0.000111508
-0.000571371
0.00069447
0.000658156
0.000584644
0.000450355
0.000246968
-6.88643e-05
-0.000173017
-0.000124541
-0.000153771
-0.000333991
-0.000306643
-0.000136793
-0.000796261
0.000468757
0.000190817
6.97536e-05
1.48635e-05
-5.69449e-05
-9.34565e-05
-0.000248403
-0.000158798
-0.000109955
-0.00025296
-0.000443842
-0.00043325
-0.000281668
-0.000876468
0.000140352
-0.000352244
-0.000277839
-0.000621434
-0.000155049
-7.57857e-05
-0.000205501
-0.000438297
-0.000146878
-7.175e-05
-0.000408057
-0.000574327
-0.000470976
-0.000325001
-0.00112394
-0.000306846
-0.000986511
-0.000501073
-0.00135028
-0.000579805
-5.65768e-05
-0.000212922
-0.000211539
-0.000464797
-0.000135849
-5.90754e-05
-0.000442733
-0.000707376
-0.000558214
-0.000569748
-0.00142547
-0.000879665
-0.00160208
-0.000689913
-0.00185606
-0.00122817
-0.000159559
-0.000238627
-0.000285335
-0.000159736
-0.000277631
-0.000110622
-3.69826e-05
-0.000449786
-0.000838059
-0.000827908
-0.00109064
-0.00173021
-0.00130218
-0.00202159
-0.00106483
-0.00197654
-0.0014968
-0.00020276
-0.000330657
-0.000398257
-0.000319117
6.78696e-05
-1.03291e-05
-2.86863e-05
-2.06878e-05
-0.000488251
-0.000990015
-0.00121412
-0.0016518
-0.00213705
-0.00188371
-0.00205493
-0.00148774
-0.00176882
-0.00141622
-0.000239176
-0.000584399
-0.000483338
-0.000507559
-0.000122899
0.000427629
0.000300197
7.92763e-05
7.81292e-06
-0.000506356
-0.00113287
-0.00143208
-0.00194594
-0.00255618
-0.00272595
-0.00193571
-0.0015122
-0.00192149
-0.00161146
-0.00031576
-0.000560643
-0.000901998
-0.000684646
-0.000447933
7.97181e-05
0.000685597
0.000474439
0.000186157
3.14402e-05
-0.000535253
-0.00121307
-0.00154794
-0.00215277
-0.00294698
-0.00341539
-0.00225458
-0.00122249
-0.00245751
-0.00232788
-0.00061886
-0.000871403
-0.000812793
-0.000947426
-0.000690848
-0.000233903
0.00012162
0.000797409
0.000601892
0.000295113
7.28001e-05
-0.000553306
-0.00124471
-0.00166778
-0.00235893
-0.00339801
-0.00395126
-0.00299811
-0.00148186
-0.00305853
-0.00292866
-0.000528347
-0.00147046
-0.00140611
-0.000915596
-0.000661598
-0.000392418
6.17467e-05
0.000185351
0.000765895
0.000692345
0.000400428
0.000109662
-0.000568837
-0.00125163
-0.00188866
-0.00273078
-0.00387252
-0.00436353
-0.00382085
-0.00214187
-0.00385092
-0.00358555
-0.000326213
-0.00115893
-0.00170009
-0.00174903
-0.000677196
-0.000204059
0.000120277
0.000322575
0.000548266
0.000730455
0.000776097
0.000494903
0.000157098
-0.000574035
-0.00128315
-0.00217827
-0.0032127
-0.0043143
-0.00471428
-0.00454697
-0.00298069
-0.00503573
-0.00469693
-0.000212763
-0.00113517
-0.00139683
-0.00164986
-0.00169146
-0.000349045
0.000294176
0.000442755
0.000621992
0.00107327
0.000901792
0.000916308
0.000608219
0.000204662
-0.00058149
-0.00135724
-0.00238987
-0.00361965
-0.00474903
-0.00512719
-0.00539544
-0.00407237
-0.00606995
-0.00585764
-0.000137312
-0.000644937
-0.00148463
-0.00149003
-0.00133612
-0.00135914
-8.06643e-05
0.000693415
0.000423451
0.0011379
0.00125545
0.000986295
0.00105436
0.000718862
0.000259259
-0.000578787
-0.00143386
-0.00258992
-0.00394916
-0.00515088
-0.00562232
-0.00637142
-0.00525972
-0.00693284
-0.00674809
-0.000146564
-0.000512927
-0.00103771
-0.00132639
-0.00133403
-0.00100549
-0.000751688
0.000325782
0.000768737
0.000640041
0.00141434
0.00111305
0.00101782
0.00121218
0.000850439
0.000317741
-0.000579967
-0.00152928
-0.0028005
-0.0042697
-0.00553543
-0.00595243
-0.00752728
-0.00654176
-0.00735365
-0.00776749
-0.000221694
-0.000495487
-0.000852866
-0.00108978
-0.00100806
-0.00108529
-0.000682301
-1.631e-05
0.000896527
0.000635603
0.00108172
0.00143269
0.00119179
0.00114465
0.00136558
0.000981063
0.000383216
-0.000575607
-0.00161713
-0.00299157
-0.00458637
-0.00590763
-0.00641601
-0.00846037
-0.00773024
-0.00784226
-0.00869728
-9.69409e-06
-0.000641182
-0.000577232
-0.00109905
-0.00090295
-0.000781895
-0.001045
-9.43766e-05
0.000714421
0.00139549
0.000714423
0.00143389
0.00155533
0.00127246
0.00135913
0.00154985
0.00112676
0.000452703
-0.000574538
-0.00172233
-0.0032128
-0.00490623
-0.00627241
-0.00737318
-0.00895291
-0.00878547
-0.00889942
-0.00905103
-7.68055e-06
-0.00021858
-0.000766944
-0.000644172
-0.0012334
-0.00112895
-0.000969617
-0.000742416
0.000691165
0.00112651
0.0017437
0.00113015
0.00183596
0.00176668
0.00149785
0.0016669
0.00174252
0.00127522
0.000528392
-0.000571985
-0.00182336
-0.00342218
-0.00523141
-0.0066917
-0.00821808
-0.00924481
-0.0094895
-0.00965313
-0.00987542
-8.44695e-06
-0.000213784
-0.000724563
-0.000667965
-0.000998508
-0.00154533
-0.0015297
-0.00100823
2.2399e-05
0.000912189
0.00129191
0.00182945
0.00167244
0.00207735
0.00193206
0.00195167
0.00197608
0.0019578
0.00143474
0.000607529
-0.000570925
-0.00193456
-0.00364624
-0.00556267
-0.00715882
-0.00906739
-0.00993014
-0.010023
-0.0108025
-0.0117409
-8.76264e-05
-0.000258107
-0.000794477
-0.000854421
-0.000971288
-0.00138665
-0.00186064
-0.00156153
-0.000714473
0.000339843
0.00103454
0.00161562
0.00165297
0.0020122
0.00195901
0.00201355
0.00232616
0.00231356
0.00218382
0.00159897
0.000692075
-0.000570515
-0.00204441
-0.0038705
-0.0058958
-0.00765367
-0.00985998
-0.0109825
-0.0112702
-0.01217
-0.0138244
-0.000108793
-0.0004289
-0.000747769
-0.0010692
-0.00102249
-0.00145481
-0.00152959
-0.0017104
-0.00114041
-0.000331919
7.43415e-05
0.00151344
0.00187247
0.00174111
0.00222052
0.00195739
0.00232284
0.00269388
0.00264063
0.00242473
0.00177213
0.00077961
-0.000570173
-0.00216025
-0.00410064
-0.00623595
-0.00815922
-0.0104267
-0.0118935
-0.0128962
-0.013263
-0.0155529
-0.000123606
-0.000485528
-0.000745853
-0.000978272
-0.00101081
-0.00117587
-0.00128883
-0.00117537
-0.000920918
-0.000609141
9.33285e-05
0.000352553
0.00196811
0.00202013
0.00206285
0.00219145
0.00224661
0.00271301
0.00306941
0.00298594
0.00267714
0.00195058
0.00087209
-0.00057132
-0.00227658
-0.00433422
-0.00658003
-0.00866324
-0.011033
-0.0127434
-0.0145651
-0.0143335
-0.0169659
-3.06423e-05
-0.000307525
-0.000746123
-0.00104325
-0.00098546
-0.00106348
-0.00106988
-0.000773734
-0.000658546
-2.58254e-05
-0.000191175
0.000571086
0.0010407
0.00236007
0.00222541
0.00262156
0.00244792
0.00258367
0.00313302
0.00345306
0.00333403
0.00294043
0.00213694
0.000966983
-0.000572274
-0.00239689
-0.00457086
-0.00693335
-0.00916426
-0.0116269
-0.0135556
-0.0158316
-0.0153929
-0.0178929
5.77315e-05
-0.000148414
-0.000542833
-0.000958342
-0.000950028
-0.00090448
-0.00119101
-0.000897461
-0.000472342
-0.000360978
-1.29518e-05
0.00018678
0.00115629
0.00161712
0.00221354
0.00260626
0.00310216
0.00296868
0.00299594
0.00360606
0.0038673
0.00369404
0.00321477
0.00232839
0.00106612
-0.000574773
-0.00251807
-0.00481267
-0.00729349
-0.00967922
-0.0122996
-0.0143959
-0.0167229
-0.0167008
-0.0187615
5.92655e-05
7.7407e-06
-0.000474358
-0.000902801
-0.000915033
-0.000665983
-0.000672304
-0.00085878
-0.000616225
-0.000213089
-0.000167917
-0.00015778
0.000698015
0.00183641
0.00218164
0.00222608
0.00295157
0.00318508
0.00324667
0.00349338
0.00410675
0.0042922
0.0040637
0.0034979
0.00252691
0.00116728
-0.000576798
-0.00264298
-0.0050578
-0.00766423
-0.0102074
-0.0129767
-0.0152325
-0.0174293
-0.017977
-0.0200544
5.61553e-05
4.88066e-05
-0.000428508
-0.000931466
-0.000893295
-0.000725772
-0.000328707
-0.000550223
-0.000512064
-0.000320049
1.36821e-05
-7.04133e-05
0.000129099
0.00145019
0.00262172
0.00269482
0.00273544
0.00319421
0.00347366
0.00364141
0.0040771
0.00462369
0.00474051
0.00444271
0.00379101
0.00273008
0.0012723
-0.000580573
-0.00276902
-0.00530896
-0.00804329
-0.0107492
-0.0136627
-0.0160613
-0.0182234
-0.0192461
-0.0213685
0.000105807
0.000138733
-0.000480266
-0.000830658
-0.00104961
-0.000722568
-0.000472542
-0.000264388
-0.000445251
-0.000134093
8.40111e-05
0.000308017
0.000346428
0.000815588
0.00217774
0.00309717
0.00295887
0.00295419
0.00371749
0.00413086
0.00434344
0.00469927
0.00515672
0.00519912
0.00483272
0.00409157
0.00293962
0.00137882
-0.000583864
-0.00289875
-0.00556439
-0.00843322
-0.011301
-0.0143619
-0.0169216
-0.0192962
-0.0205278
-0.0226809
0.00011074
0.000189087
-0.000236668
-0.000776746
-0.000848715
-0.000804454
-0.000605816
-0.000292
-0.00035476
-4.7715e-06
0.00040938
0.000441041
0.000864961
0.000891614
0.00186401
0.00277709
0.00303028
0.00303504
0.00317801
0.00385386
0.00429017
0.00495805
0.00535415
0.00570944
0.00567589
0.00523125
0.00440097
0.00315321
0.00148876
-0.000588908
-0.00303019
-0.00582652
-0.00883121
-0.0118649
-0.0150715
-0.0177962
-0.0203581
-0.0218072
-0.0240088
0.000104298
0.000192459
-0.000115378
-0.000743078
-0.000682531
-0.000678334
-0.000695348
-0.000314316
-0.000107423
-0.000137144
0.000384653
0.000732015
0.00101804
0.00125161
0.00146148
0.00270052
0.00317688
0.00328041
0.00320139
0.00340078
0.0039135
0.00454212
0.00560495
0.00601298
0.00627751
0.00616362
0.00564019
0.00471679
0.00337256
0.00159984
-0.00059378
-0.00316564
-0.00609296
-0.00923998
-0.0124386
-0.0157952
-0.0186909
-0.0214431
-0.023091
-0.0253363
2.15819e-06
0.000182667
-8.76023e-05
-0.000714004
-0.000652713
-0.000593327
-0.000651383
-0.000456146
-0.000102453
0.000106168
0.000516987
0.0008778
0.000926525
0.00161659
0.0016311
0.00213167
0.00311078
0.00339574
0.00380805
0.003432
0.00388
0.00454524
0.0052281
0.00625916
0.00667895
0.00686033
0.00666581
0.00605717
0.00504065
0.00359542
0.0017138
-0.000600624
-0.00330278
-0.0063665
-0.00965726
-0.0130243
-0.0165302
-0.0196009
-0.0225281
-0.024379
-0.0266732
-3.43989e-05
9.07957e-05
-0.000119314
-0.000674226
-0.000714282
-0.000590533
-0.000597498
-0.000501682
-0.00017113
0.000184537
0.000480051
0.00105089
0.00124261
0.00148995
0.00184577
0.00221289
0.00272244
0.00336006
0.00376651
0.00391609
0.00372045
0.00445967
0.00518853
0.00599955
0.00695656
0.00735526
0.00745749
0.00717874
0.00648396
0.00537029
0.00382346
0.00182843
-0.000607217
-0.00344421
-0.00664513
-0.0100854
-0.0136192
-0.0172795
-0.020525
-0.0236265
-0.0256709
-0.0280157
-1.94522e-05
-2.96439e-05
-0.000181703
-0.0005595
-0.000790581
-0.000614805
-0.000603409
-0.000500993
-0.000324696
0.000375485
0.0007149
0.00104256
0.00129291
0.0014147
0.00183649
0.00221324
0.00259967
0.00305987
0.0038892
0.00402542
0.00421079
0.00451338
0.00500923
0.00584825
0.0068128
0.00768534
0.00804497
0.00806744
0.00770413
0.00691833
0.00570736
0.00405449
0.00194574
-0.000615976
-0.00358798
-0.00693136
-0.0105218
-0.0142258
-0.0180397
-0.0214647
-0.0247327
-0.026968
-0.0293665
-7.9417e-06
1.20954e-06
-0.000202735
-0.000577527
-0.000599151
-0.000656077
-0.00052043
-0.000483131
-0.00031855
0.000196323
0.0009098
0.00108601
0.00133244
0.00142254
0.00175901
0.00194663
0.00233369
0.00278917
0.00361622
0.00451215
0.0042105
0.00476552
0.00538769
0.00581619
0.00658135
0.00767111
0.00844697
0.00874823
0.00869084
0.00823941
0.00736195
0.00604961
0.00429041
0.00206336
-0.000624954
-0.00373653
-0.0072229
-0.010969
-0.0148412
-0.0188143
-0.0224175
-0.0258503
-0.0282708
-0.0307266
-4.33826e-06
-2.93781e-06
-0.000103975
-0.000424233
-0.00053235
-0.000571068
-0.000462293
-0.000392268
-0.000255016
0.000105215
0.000841649
0.000988265
0.00145547
0.00159763
0.00161448
0.00219961
0.00230515
0.00271666
0.00307314
0.00414087
0.00505163
0.00462708
0.00539371
0.00616562
0.00678976
0.0075771
0.00857553
0.00923486
0.00946636
0.00932579
0.00878607
0.00781267
0.00639898
0.00452895
0.00218316
-0.000636481
-0.00388769
-0.00752228
-0.011424
-0.0154683
-0.0196007
-0.0233842
-0.0269786
-0.0295813
-0.0320927
-1.93765e-05
-6.33892e-06
-5.2484e-05
-0.000294537
-0.000398812
-0.000424946
-0.000535869
-0.00031577
-0.000138255
0.000243502
0.0007579
0.00120191
0.00133157
0.00172897
0.00203042
0.0021308
0.00250312
0.00297619
0.00358292
0.00389204
0.00483262
0.00556796
0.00546914
0.00596545
0.00691704
0.0077736
0.00866114
0.00949176
0.0100433
0.0101977
0.00997344
0.00934184
0.00827232
0.00675338
0.00477197
0.00230282
-0.000648463
-0.00404393
-0.00782689
-0.0118896
-0.0161048
-0.0204006
-0.0243638
-0.0281199
-0.0308961
-0.033471
-2.5921e-05
3.26138e-05
-3.29409e-05
-0.00018197
-0.00039963
-0.00045159
-0.000479645
-0.000353998
-5.26961e-05
0.000259058
0.000838595
0.00122309
0.0017597
0.00183901
0.0019891
0.0022622
0.00253548
0.00301414
0.00344292
0.00397157
0.0048034
0.00568206
0.00572579
0.00633692
0.0066274
0.00774213
0.00880365
0.00969735
0.010419
0.0108697
0.0109432
0.0106317
0.00990813
0.00873894
0.00711461
0.00501725
0.00242434
-0.000663247
-0.00420288
-0.00813955
-0.0123636
-0.0167525
-0.0212128
-0.025358
-0.0292705
-0.0322214
-0.0348572
-2.12106e-05
2.941e-05
-9.17425e-06
-0.000147653
-0.000427962
-0.000578189
-0.00052569
-0.00032008
-2.82897e-06
0.000351288
0.000911122
0.00123701
0.00174379
0.00214451
0.00228553
0.00239572
0.00268023
0.00307379
0.00354107
0.00390986
0.00455878
0.00560588
0.00608333
0.00580711
0.00704837
0.00774254
0.00880593
0.00987999
0.0107175
0.0113561
0.0117117
0.0117008
0.0113018
0.010483
0.00921425
0.0074805
0.00526668
0.00254544
-0.000678644
-0.00436722
-0.00845803
-0.0128475
-0.0174102
-0.0220392
-0.0263627
-0.0304362
-0.0335532
-0.0362549
-1.25153e-05
4.35269e-07
-1.4806e-05
-0.000243345
-0.000442412
-0.000627472
-0.000551663
-0.000241636
5.91027e-05
0.000482908
0.000915411
0.00130722
0.00174833
0.00231493
0.00237769
0.00251014
0.00278875
0.00318882
0.00373813
0.00418297
0.00502009
0.00554777
0.00596183
0.00614716
0.00656055
0.007838
0.00888547
0.00997442
0.0109616
0.0117539
0.0123022
0.012567
0.0124712
0.0119817
0.011068
0.00969616
0.00785277
0.00551807
0.00266809
-0.000697125
-0.00453484
-0.00878429
-0.0133402
-0.0180798
-0.0228763
-0.0273829
-0.0316127
-0.0348952
-0.0376625
1.56927e-05
-2.9676e-05
-2.05714e-05
-0.000256157
-0.000482532
-0.000636969
-0.000522219
-0.000208697
0.000135258
0.000533978
0.000990119
0.00138768
0.00175956
0.00227637
0.00267648
0.00275214
0.00282832
0.00329306
0.00374361
0.00436499
0.00532892
0.00602784
0.0061142
0.00632661
0.00665522
0.00760897
0.00884241
0.0100562
0.0111274
0.0120619
0.0127829
0.0132575
0.0134353
0.0132525
0.012673
0.0116611
0.0101863
0.00822938
0.00577321
0.00279
-0.000716659
-0.00470785
-0.00911684
-0.0138434
-0.0187581
-0.0237285
-0.0284144
-0.0328033
-0.036246
-0.039083
4.77575e-05
-3.63426e-05
-4.59103e-05
-0.000277704
-0.0004561
-0.0006209
-0.000451465
-0.000160775
0.000191402
0.000451328
0.00101076
0.00136611
0.00183928
0.00245338
0.00272677
0.00303372
0.00315413
0.0034946
0.00381895
0.00455521
0.0055049
0.00628537
0.00630119
0.0067025
0.0072598
0.00786347
0.00882622
0.00999333
0.0112407
0.0122952
0.0131678
0.0138274
0.0142226
0.0143147
0.0140459
0.0133735
0.0122638
0.0106827
0.0086118
0.00602996
0.00291312
-0.000739418
-0.0048846
-0.00945778
-0.0143542
-0.0194493
-0.0245921
-0.0294602
-0.0340062
-0.0376086
-0.0405128
6.80969e-05
-3.02701e-05
-0.000106867
-0.000257339
-0.000448128
-0.000590817
-0.0003796
-0.000110962
0.0001803
0.0005005
0.000990253
0.00138138
0.00180058
0.00234878
0.00286551
0.00313223
0.00341279
0.00340883
0.00401054
0.0046281
0.00564648
0.00632443
0.00651783
0.00674226
0.0076954
0.00800083
0.0088988
0.0100261
0.011249
0.0124517
0.0134643
0.0142853
0.0148762
0.015197
0.0152062
0.0148494
0.0140846
0.0128741
0.0111865
0.00899804
0.00629017
0.00303518
-0.000763613
-0.0050673
-0.00980422
-0.0148762
-0.02015
-0.0254698
-0.0305184
-0.0352243
-0.0389795
-0.0419563
7.91937e-05
-5.36451e-05
-0.000141806
-0.000283427
-0.000418687
-0.000543069
-0.00034869
-5.78619e-06
0.000202455
0.000531308
0.00108454
0.0014464
0.00183702
0.0023276
0.00286123
0.00322618
0.00345867
0.00354168
0.00381718
0.00475872
0.00561967
0.00632461
0.00666339
0.00691452
0.00794655
0.00850574
0.00899572
0.00990296
0.0112127
0.0125204
0.01368
0.0146498
0.0154116
0.0159362
0.0161821
0.0161079
0.0156641
0.0148043
0.013493
0.0116959
0.00938972
0.00655149
0.00315814
-0.000791484
-0.00525333
-0.0101597
-0.0154064
-0.0208629
-0.0263596
-0.0315914
-0.0364537
-0.0403633
-0.0434105
5.92675e-05
-6.24005e-05
-0.000202034
-0.000309661
-0.000425147
-0.000515641
-0.000321028
5.94978e-05
0.000242475
0.000557688
0.00116959
0.00153038
0.0019249
0.00240635
0.00298903
0.0034419
0.00363322
0.00381086
0.00388183
0.0047596
0.00570602
0.00644179
0.00674871
0.00720729
0.00771753
0.00854566
0.0090724
0.0102131
0.0110698
0.0125194
0.0138069
0.0149237
0.0158435
0.016548
0.0170059
0.0171767
0.0170209
0.0164882
0.0155335
0.0141187
0.0122121
0.00978441
0.00681596
0.00327968
-0.000820654
-0.0054459
-0.0105214
-0.0159473
-0.0215862
-0.0272641
-0.0326758
-0.0376987
-0.0417571
-0.0448792
4.67197e-05
-8.29121e-05
-0.000239848
-0.000344899
-0.000470073
-0.000515599
-0.000300286
0.000108084
0.000269556
0.000602242
0.00120825
0.00158764
0.00195642
0.00256041
0.00300579
0.0034877
0.00370734
0.00387587
0.00419641
0.00468309
0.00558871
0.00628658
0.00709138
0.00743378
0.00783231
0.00847944
0.0093285
0.00996986
0.0111979
0.0124176
0.013875
0.0151158
0.0161815
0.0170496
0.0176952
0.0180855
0.0181822
0.0179435
0.0173223
0.0162705
0.0147526
0.0127326
0.0101841
0.0070812
0.00340198
-0.000853954
-0.00564243
-0.0108916
-0.016497
-0.0223222
-0.0281798
-0.0337753
-0.0389562
-0.0431648
-0.046361
3.95935e-05
-0.000101548
-0.000250975
-0.000351489
-0.000469243
-0.000525118
-0.000284651
8.43138e-05
0.000288938
0.000641089
0.00117884
0.00162038
0.00196303
0.00256339
0.00300039
0.0035037
0.0037643
0.0038352
0.00412664
0.00463737
0.00561116
0.00646564
0.00701218
0.00777527
0.00789978
0.00866504
0.00951914
0.0105405
0.0112573
0.0123428
0.0138679
0.0152329
0.0164334
0.0174515
0.018267
0.0188525
0.0191759
0.0191974
0.0188764
0.018165
0.0170166
0.0153919
0.0132596
0.0105864
0.00734915
0.00352255
-0.000889078
-0.00584526
-0.0112686
-0.0170579
-0.0230679
-0.0291102
-0.0348868
-0.0402296
-0.044585
-0.0478568
3.08639e-05
-0.000106653
-0.000282573
-0.000353703
-0.000469268
-0.000507686
-0.000250488
8.77525e-05
0.000277547
0.00065912
0.0011453
0.00155436
0.00195626
0.00254912
0.00302357
0.00344252
0.00386807
0.00387582
0.0040984
0.00466273
0.00552804
0.00664641
0.00738614
0.00809065
0.00813625
0.00865559
0.00950794
0.0106764
0.0115307
0.0125212
0.0138033
0.0152996
0.0166177
0.0177663
0.0187344
0.0194954
0.020021
0.0202763
0.0202228
0.0198185
0.0190177
0.0177693
0.0160391
0.0137907
0.010993
0.00761763
0.00364343
-0.000928245
-0.00605257
-0.0116547
-0.0176269
-0.0238265
-0.0300524
-0.0360138
-0.0415173
-0.0460186
-0.0493648
2.45105e-05
-0.000124073
-0.000301377
-0.000347305
-0.000460878
-0.000510963
-0.000250836
0.000130493
0.000265839
0.000674492
0.00112248
0.00152693
0.00199566
0.00262611
0.00302452
0.00357133
0.00401947
0.00402643
0.00408354
0.00472516
0.00564365
0.00666964
0.00749619
0.00813616
0.00850742
0.00870737
0.00983168
0.0103625
0.0116482
0.0124592
0.013857
0.0153241
0.016735
0.0180052
0.0191103
0.0200286
0.0207353
0.0211998
0.0213871
0.0212578
0.0207712
0.0198776
0.0185309
0.0166917
0.0143273
0.011402
0.00788839
0.0037625
-0.000969651
-0.00626668
-0.0120471
-0.0182073
-0.0245954
-0.0310096
-0.0371546
-0.0428202
-0.0474639
-0.0508887
1.57437e-05
-0.000127361
-0.00029717
-0.000362653
-0.00043668
-0.000503295
-0.000275672
0.000125968
0.00026336
0.000659759
0.00112463
0.0014883
0.00198758
0.00263569
0.00307181
0.0035652
0.00412071
0.00433033
0.00410943
0.00481953
0.00584564
0.0067697
0.0075317
0.00823775
0.00853136
0.00876749
0.00990538
0.0108108
0.0115975
0.0125132
0.0136656
0.0153482
0.0168183
0.0181864
0.0194095
0.0204663
0.0213347
0.0219861
0.0223893
0.022508
0.0223037
0.0217318
0.0207475
0.0192988
0.0173509
0.0148677
0.0118149
0.00815943
0.00388156
-0.00101557
-0.00648507
-0.0124488
-0.0187963
-0.0253777
-0.03198
-0.0383101
-0.0441363
-0.0489248
-0.0524252
9.75068e-06
-0.000132933
-0.00030261
-0.000370694
-0.00044295
-0.000521876
-0.000305233
9.88917e-05
0.000281777
0.00065084
0.00113711
0.00145732
0.00200835
0.00264136
0.00307695
0.00357298
0.00410497
0.00439674
0.00425184
0.00476199
0.00595484
0.00689217
0.00766697
0.00842264
0.00879835
0.00903499
0.00989678
0.0109366
0.011879
0.0128709
0.0138032
0.0152807
0.01688
0.0183155
0.0196419
0.0208221
0.0218338
0.0226519
0.0232477
0.0235891
0.02364
0.0233581
0.0227031
0.0216247
0.0200745
0.0180155
0.0154137
0.0122299
0.00843249
0.00399835
-0.0010637
-0.00671043
-0.0128573
-0.019397
-0.0261714
-0.0329646
-0.0394783
-0.0454692
-0.0503979
-0.0539789
1.19662e-06
-0.000134351
-0.000322214
-0.000384016
-0.000479961
-0.000536354
-0.000338121
3.87548e-05
0.000266693
0.000625264
0.00115528
0.00150974
0.00200007
0.00263069
0.00308675
0.00359924
0.0042555
0.00442084
0.00447374
0.0047222
0.00600634
0.00704414
0.00787502
0.00858474
0.00895614
0.00937481
0.0100201
0.0109463
0.0119392
0.013232
0.0141611
0.0153733
0.0169112
0.0184182
0.0198264
0.02111
0.022247
0.0232124
0.02398
0.0245201
0.0248004
0.024781
0.0244238
0.0236827
0.0225105
0.0208571
0.018687
0.0159633
0.0126487
0.00870539
0.00411499
-0.00111649
-0.00694045
-0.0132753
-0.0200074
-0.026978
-0.0339615
-0.0406626
-0.0468155
-0.0518879
-0.0555476
-6.51721e-06
-0.000137533
-0.000337151
-0.000420434
-0.000500546
-0.000553898
-0.000376263
5.21501e-06
0.000253928
0.000629985
0.00113377
0.00152865
0.00201284
0.00259525
0.00309454
0.00361774
0.00431992
0.00465293
0.00452346
0.00478871
0.00597741
0.00725762
0.00790659
0.00878215
0.00930746
0.00938339
0.010209
0.0110327
0.0118544
0.0131215
0.0143696
0.0155144
0.0169547
0.0184863
0.0199695
0.0213407
0.022587
0.0236822
0.0246017
0.025319
0.0258042
0.0260209
0.0259337
0.0254985
0.0246715
0.0234043
0.0216475
0.0193637
0.0165186
0.0130692
0.00898003
0.00422923
-0.0011718
-0.00717783
-0.013701
-0.020629
-0.0277952
-0.0349736
-0.0418598
-0.0481795
-0.0533925
-0.0571305
-1.47863e-05
-0.000137225
-0.000349898
-0.000460719
-0.000539076
-0.000593707
-0.000384444
-4.83839e-05
0.000265784
0.000675209
0.00114743
0.00152822
0.00201921
0.00256634
0.00304917
0.00365392
0.00440238
0.00476341
0.00474189
0.00491986
0.00599799
0.00731655
0.0080478
0.00880758
0.00935396
0.00957862
0.0102082
0.0109834
0.0120823
0.0133504
0.0143269
0.0154519
0.0169483
0.0185417
0.0200801
0.0215281
0.0228673
0.0240748
0.025128
0.0260021
0.0266699
0.0270977
0.0272536
0.0270961
0.0265829
0.0256692
0.0243067
0.0224445
0.0200476
0.0170776
0.0134933
0.00925436
0.00434306
-0.0012322
-0.0074206
-0.0141361
-0.0212597
-0.0286262
-0.0359981
-0.043074
-0.0495588
-0.054911
-0.0587291
-2.23951e-05
-0.000144998
-0.000354256
-0.000485597
-0.000573134
-0.000629898
-0.000428418
-5.9941e-05
0.00027481
0.000710481
0.00118758
0.00150443
0.0020285
0.00254491
0.00304171
0.00369554
0.0044843
0.00498284
0.00501193
0.00507269
0.00600532
0.00734629
0.00808767
0.00882779
0.00960155
0.00974448
0.0101175
0.0111371
0.0119733
0.0133344
0.0146501
0.0155471
0.0167832
0.0185545
0.0201625
0.0216764
0.0230975
0.0244024
0.0255723
0.0265846
0.0274142
0.0280304
0.0284038
0.0284964
0.0282685
0.0276772
0.0266764
0.0252166
0.0232497
0.0207368
0.0176418
0.013919
0.00953023
0.00445404
-0.00129568
-0.00767065
-0.0145783
-0.0219024
-0.0294682
-0.0370388
-0.0443028
-0.0509529
-0.056445
-0.0603465
-3.0259e-05
-0.000160061
-0.00036156
-0.000503249
-0.000583532
-0.000649537
-0.000449018
-7.37203e-05
0.000284984
0.000746609
0.0011904
0.00148178
0.00203243
0.00260704
0.00302926
0.00372621
0.00452401
0.005211
0.00530097
0.00519718
0.00589572
0.00736477
0.00816149
0.00887146
0.00978462
0.0100099
0.0103255
0.0113456
0.0123428
0.0134438
0.0147938
0.0158502
0.0169315
0.0184865
0.0202072
0.0217921
0.0232861
0.0246761
0.0259475
0.0270805
0.0280528
0.028836
0.0294035
0.0297201
0.0297495
0.0294515
0.0287816
0.027692
0.0261357
0.0240613
0.0214326
0.0182097
0.0143482
0.00980533
0.00456422
-0.00136429
-0.00792571
-0.0150305
-0.0225544
-0.0303247
-0.0380932
-0.0455459
-0.052363
-0.0579975
-0.0619771
-3.80297e-05
-0.000163242
-0.0003595
-0.000519719
-0.000596762
-0.000659842
-0.000475957
-7.90262e-05
0.000279435
0.000731411
0.00114806
0.00144897
0.0020357
0.00267942
0.00307051
0.00374304
0.00455807
0.00522642
0.00548313
0.00528774
0.00585717
0.00727406
0.00833463
0.00890339
0.00991336
0.0103926
0.0105614
0.0115238
0.012541
0.0137794
0.0148317
0.0159368
0.0170301
0.0185232
0.0202261
0.0218757
0.0234386
0.024904
0.0262641
0.0275026
0.0285999
0.0295306
0.0302704
0.0307872
0.0310471
0.0310138
0.0306451
0.0298951
0.0287175
0.0270622
0.0248807
0.0221338
0.0187828
0.0147785
0.0100818
0.00467134
-0.00143576
-0.00818858
-0.0154901
-0.0232192
-0.0311934
-0.0391614
-0.0468041
-0.0537918
-0.059563
-0.0636262
-4.28033e-05
-0.000167534
-0.00035472
-0.000530208
-0.000614936
-0.000656477
-0.000501036
-0.000101194
0.000268501
0.000701998
0.0011013
0.00144372
0.00205033
0.00274557
0.00314374
0.00376928
0.00462772
0.00527277
0.00566765
0.00560644
0.00586304
0.00707051
0.00838667
0.0090453
0.0101376
0.0106896
0.010877
0.0116209
0.0127743
0.0137319
0.0149106
0.0159929
0.0170079
0.0184373
0.020211
0.0219265
0.0235588
0.0250931
0.0265313
0.0278619
0.0290686
0.0301288
0.0310209
0.0317155
0.0321816
0.0323857
0.032289
0.0318484
0.0310192
0.0297514
0.0279974
0.0257067
0.0228417
0.0193591
0.0152123
0.0103571
0.00477773
-0.00151275
-0.00845685
-0.0159604
-0.0238943
-0.0320746
-0.0402437
-0.0480804
-0.0552342
-0.0611467
-0.0652919
-4.6689e-05
-0.000172481
-0.000364067
-0.000531982
-0.000634571
-0.000663809
-0.000523342
-0.0001258
0.000255338
0.000692634
0.00107754
0.00145028
0.00208991
0.00283275
0.00326746
0.00378561
0.00466201
0.0052848
0.00582653
0.0059612
0.0059126
0.00694485
0.00837923
0.00923847
0.0101766
0.0108991
0.0113344
0.011812
0.0128066
0.0138466
0.015039
0.0159892
0.0172777
0.0185434
0.0201914
0.0219636
0.0236575
0.0252498
0.0267568
0.028168
0.0294702
0.0306438
0.03167
0.032522
0.0331714
0.0335879
0.0337354
0.0335745
0.033063
0.0321526
0.0307947
0.0289401
0.0265407
0.0235544
0.0199407
0.0156468
0.0106337
0.00488083
-0.00159304
-0.00873344
-0.0164389
-0.0245805
-0.0329684
-0.041343
-0.0493696
-0.0566949
-0.0627468
-0.0669761
-5.44423e-05
-0.000176467
-0.00037203
-0.000541242
-0.000644999
-0.000681859
-0.000544894
-0.000159882
0.000228758
0.000679107
0.00107145
0.00147592
0.0021132
0.00288178
0.00334605
0.00378543
0.0046765
0.00534013
0.0058174
0.00616986
0.00603214
0.00691117
0.00821586
0.00943004
0.0101064
0.0110198
0.0115121
0.0120328
0.0128491
0.0140874
0.0150444
0.016285
0.0173791
0.0188097
0.0203384
0.0219825
0.0237434
0.0253808
0.0269473
0.0284289
0.0298147
0.0310874
0.0322312
0.0332219
0.0340337
0.0346394
0.0350056
0.035096
0.0348718
0.0342876
0.033296
0.0318465
0.0298919
0.0273808
0.0242743
0.020525
0.0160846
0.0109092
0.00498272
-0.0016793
-0.00901608
-0.0169268
-0.0252774
-0.0338776
-0.0424546
-0.0506763
-0.0581722
-0.0643652
-0.0686752
-6.06679e-05
-0.000184964
-0.00037429
-0.000549229
-0.000654363
-0.000694116
-0.000571188
-0.000187766
0.00020467
0.000663059
0.00106569
0.00150759
0.00214448
0.00289822
0.00341292
0.00379858
0.00464494
0.00534199
0.00579596
0.00625937
0.00625801
0.00691327
0.00805994
0.00940703
0.0101213
0.011086
0.0117128
0.0121418
0.0129123
0.0140034
0.0153138
0.0163304
0.0175225
0.0189325
0.0205175
0.0221468
0.0238482
0.0254998
0.0271117
0.0286521
0.0301104
0.0314698
0.0327165
0.0338291
0.0347843
0.0355578
0.0361189
0.0364345
0.0364686
0.0361796
0.0355227
0.0344488
0.0329082
0.030851
0.0282295
0.0249983
0.0211142
0.0165232
0.0111854
0.00508094
-0.0017693
-0.00930616
-0.0174233
-0.0259878
-0.0347978
-0.0435827
-0.0519989
-0.0596677
-0.0659982
-0.0703943
-6.4999e-05
-0.000186457
-0.000374447
-0.000552115
-0.00066041
-0.000710714
-0.000583495
-0.000221041
0.000185752
0.000662339
0.00106991
0.00153209
0.00216116
0.00293671
0.0034574
0.00384997
0.00460148
0.00532139
0.00581708
0.00626648
0.00652093
0.00693907
0.00798893
0.00927052
0.0101919
0.0111346
0.0119761
0.0123598
0.0130113
0.0140928
0.0154583
0.016427
0.0176544
0.0189514
0.0206319
0.0222747
0.0239443
0.0256116
0.0272563
0.0288442
0.0303645
0.0317995
0.0331364
0.0343559
0.0354373
0.036359
0.0370933
0.0376097
0.0378756
0.0378523
0.0374985
0.0367681
0.0356122
0.0339782
0.0318198
0.0290838
0.0257291
0.0217064
0.0169645
0.0114602
0.00517771
-0.00186478
-0.00960265
-0.0179312
-0.0267076
-0.035733
-0.0447256
-0.053339
-0.0611781
-0.0676511
-0.0721296
-6.76515e-05
-0.00018175
-0.000363823
-0.000555604
-0.000667534
-0.000728164
-0.000599848
-0.000249233
0.000173447
0.000662586
0.00109057
0.00156894
0.00220327
0.0029659
0.0035423
0.00392243
0.00459754
0.00532692
0.00583747
0.00639032
0.00675724
0.00702992
0.00797341
0.00920974
0.0102708
0.011149
0.0120572
0.012545
0.0132436
0.0143147
0.0154796
0.0165962