/*--------------------------------*- C++ -*----------------------------------*\
| =========                 |                                                 |
| \\      /  F ield         | OpenFOAM: The Open Source CFD Toolbox           |
|  \\    /   O peration     | Version:  2212                                  |
|   \\  /    A nd           | Website:  www.openfoam.com                      |
|    \\/     M anipulation  |                                                 |
\*---------------------------------------------------------------------------*/
FoamFile
{
    version     2.0;
    format      ascii;
    arch        "LSB;label=32;scalar=64";
    class       surfaceScalarField;
    location    "20";
    object      phi;
}
// * * * * * * * * * * * * * * * * * * * * * * * * * * * * * * * * * * * * * //

dimensions      [0 3 -1 0 0 0 0];

oriented        oriented;

internalField   nonuniform List<scalar> 
328790
(
5.01394e-06
-6.74601
1.0343e-05
-6.29136
4.91705e-06
-6.74602
1.29559e-05
-5.86726
1.01976e-05
-6.29136
4.79643e-06
-6.74602
1.40075e-05
-5.47174
1.3417e-05
-5.86726
1.07941e-05
-6.29137
4.62361e-06
-6.74603
1.62263e-05
-5.10282
1.43754e-05
-5.47175
1.41586e-05
-5.86727
1.0866e-05
-6.29137
4.61356e-06
-6.74603
1.83604e-05
-4.75892
1.65602e-05
-5.10282
1.52361e-05
-5.47175
1.50613e-05
-5.86727
1.15431e-05
-6.29138
5.02408e-06
-6.74604
2.03422e-05
-4.43809
1.91215e-05
-4.75892
1.77625e-05
-5.10282
1.65636e-05
-5.47175
1.57774e-05
-5.86728
1.22054e-05
-6.29139
5.25863e-06
-6.74604
2.17651e-05
-4.1389
2.1146e-05
-4.43809
2.10886e-05
-4.75893
1.97572e-05
-5.10283
1.83917e-05
-5.47175
1.67422e-05
-5.86728
1.30383e-05
-6.2914
5.30106e-06
-6.74605
2.45744e-05
-3.85991
2.27212e-05
-4.1389
2.33286e-05
-4.43809
2.336e-05
-4.75893
2.20489e-05
-5.10283
1.99231e-05
-5.47175
1.79453e-05
-5.86729
1.39865e-05
-6.29141
6.03377e-06
-6.74605
2.63307e-05
-3.59964
2.59089e-05
-3.85991
2.59508e-05
-4.1389
2.58423e-05
-4.4381
2.6295e-05
-4.75893
2.53462e-05
-5.10283
2.23905e-05
-5.47176
1.97965e-05
-5.86729
1.52822e-05
-6.29141
7.0596e-06
-6.74606
2.60412e-05
-3.35699
2.77887e-05
-3.59964
2.95257e-05
-3.85992
2.86263e-05
-4.13891
2.95161e-05
-4.4381
3.01712e-05
-4.75894
2.897e-05
-5.10284
2.55584e-05
-5.47176
2.20134e-05
-5.8673
1.6636e-05
-6.29142
7.49137e-06
-6.74607
2.63028e-05
-3.13074
2.71012e-05
-3.35699
3.12443e-05
-3.59964
3.13083e-05
-3.85992
3.21562e-05
-4.13891
3.34137e-05
-4.4381
3.34698e-05
-4.75894
3.25422e-05
-5.10285
2.87003e-05
-5.47177
2.43576e-05
-5.86731
1.78473e-05
-6.29143
8.50144e-06
-6.74608
2.49194e-05
-2.9196
2.72952e-05
-3.13074
2.97476e-05
-3.35699
3.24316e-05
-3.59965
3.41164e-05
-3.85992
3.51038e-05
-4.13891
3.69258e-05
-4.43811
3.66034e-05
-4.75895
3.53237e-05
-5.10285
3.20436e-05
-5.47178
2.64249e-05
-5.86731
1.95911e-05
-6.29145
9.09189e-06
-6.74608
2.43178e-05
-2.72286
2.62051e-05
-2.9196
2.96642e-05
-3.13074
3.15441e-05
-3.35699
3.48664e-05
-3.59965
3.5989e-05
-3.85992
3.83856e-05
-4.13891
4.1131e-05
-4.43811
3.89846e-05
-4.75895
3.75541e-05
-5.10286
3.51868e-05
-5.47179
2.82734e-05
-5.86732
2.11323e-05
-6.29146
1.02999e-05
-6.7461
2.24962e-05
-2.53934
2.5856e-05
-2.72286
2.89112e-05
-2.9196
3.14995e-05
-3.13074
3.4495e-05
-3.35699
3.62985e-05
-3.59965
3.89042e-05
-3.85992
4.19752e-05
-4.13891
4.44799e-05
-4.43812
4.01653e-05
-4.75895
4.04978e-05
-5.10287
3.71921e-05
-5.4718
3.08539e-05
-5.86733
2.23669e-05
-6.29147
1.16194e-05
-6.74611
1.91537e-05
-2.36814
2.3921e-05
-2.53934
2.91834e-05
-2.72286
3.07984e-05
-2.9196
3.41265e-05
-3.13074
3.63611e-05
-3.35699
3.93164e-05
-3.59965
4.14195e-05
-3.85992
4.5383e-05
-4.13891
4.5975e-05
-4.43812
4.25442e-05
-4.75895
4.2003e-05
-5.10287
3.98566e-05
-5.47181
3.31977e-05
-5.86734
2.41339e-05
-6.29148
1.21783e-05
-6.74612
1.88423e-05
-2.20854
2.06094e-05
-2.36814
2.81345e-05
-2.53934
3.21672e-05
-2.72286
3.39496e-05
-2.9196
3.59279e-05
-3.13074
3.94237e-05
-3.35699
4.16501e-05
-3.59965
4.41962e-05
-3.85992
4.66303e-05
-4.13891
4.63377e-05
-4.43812
4.39964e-05
-4.75896
4.47254e-05
-5.10288
4.20642e-05
-5.47181
3.51732e-05
-5.86736
2.56347e-05
-6.2915
1.35119e-05
-6.74613
1.73253e-05
-2.05962
2.03034e-05
-2.20854
2.46337e-05
-2.36813
3.16327e-05
-2.53934
3.58308e-05
-2.72286
3.59135e-05
-2.9196
3.86391e-05
-3.13074
4.15585e-05
-3.35699
4.42208e-05
-3.59965
4.587e-05
-3.85992
4.75425e-05
-4.13892
4.86296e-05
-4.43813
4.57003e-05
-4.75896
4.76259e-05
-5.10288
4.48034e-05
-5.47182
3.71688e-05
-5.86737
2.75642e-05
-6.29151
1.41812e-05
-6.74615
1.60938e-05
-1.9208
1.80793e-05
-2.05962
2.35452e-05
-2.20854
2.83489e-05
-2.36813
3.46058e-05
-2.53934
3.85231e-05
-2.72286
3.86944e-05
-2.9196
4.08161e-05
-3.13074
4.41437e-05
-3.35699
4.61581e-05
-3.59965
4.84606e-05
-3.85992
4.94708e-05
-4.13892
4.84583e-05
-4.43813
4.90318e-05
-4.75896
4.95421e-05
-5.10289
4.7418e-05
-5.47183
3.89065e-05
-5.86738
2.78242e-05
-6.29152
1.46338e-05
-6.74616
1.46455e-05
-1.79142
1.70499e-05
-1.9208
2.11181e-05
-2.05962
2.69292e-05
-2.20853
3.13961e-05
-2.36813
3.77779e-05
-2.53934
4.07352e-05
-2.72287
4.08306e-05
-2.9196
4.29001e-05
-3.13074
4.61948e-05
-3.35699
4.88041e-05
-3.59965
5.03266e-05
-3.85992
5.06503e-05
-4.13892
5.05861e-05
-4.43813
5.00924e-05
-4.75896
5.18809e-05
-5.10289
4.88639e-05
-5.47184
4.04238e-05
-5.86739
2.78839e-05
-6.29154
1.51349e-05
-6.74618
1.39919e-05
-1.6706
1.57237e-05
-1.79142
1.9227e-05
-1.9208
2.40625e-05
-2.05962
2.99801e-05
-2.20853
3.47089e-05
-2.36812
4.03562e-05
-2.53934
4.26871e-05
-2.72287
4.20642e-05
-2.9196
4.52939e-05
-3.13074
4.87115e-05
-3.35699
5.08518e-05
-3.59965
5.22923e-05
-3.85992
5.21832e-05
-4.13892
5.15357e-05
-4.43814
5.2002e-05
-4.75896
5.27865e-05
-5.10289
4.91524e-05
-5.47185
4.12922e-05
-5.8674
2.78694e-05
-6.29155
1.52114e-05
-6.74619
1.58568e-05
-1.55804
1.50127e-05
-1.6706
1.63439e-05
-1.79141
2.27834e-05
-1.92079
2.68967e-05
-2.05961
3.25466e-05
-2.20853
3.79974e-05
-2.36812
4.19254e-05
-2.53933
4.31646e-05
-2.72287
4.48506e-05
-2.9196
4.78181e-05
-3.13074
5.08693e-05
-3.35699
5.30587e-05
-3.59965
5.43709e-05
-3.85992
5.38003e-05
-4.13892
5.37765e-05
-4.43814
5.37523e-05
-4.75896
5.32194e-05
-5.1029
4.95373e-05
-5.47186
4.11224e-05
-5.86742
2.73451e-05
-6.29156
1.48037e-05
-6.74621
1.55096e-05
-1.45294
1.74593e-05
-1.55804
1.70163e-05
-1.6706
1.94606e-05
-1.79141
2.53008e-05
-1.92079
3.08541e-05
-2.05961
3.56033e-05
-2.20853
4.11105e-05
-2.36812
4.46186e-05
-2.53934
4.41323e-05
-2.72287
4.64945e-05
-2.91959
5.03429e-05
-3.13073
5.3139e-05
-3.35699
5.51944e-05
-3.59965
5.64154e-05
-3.85993
5.63355e-05
-4.13893
5.61198e-05
-4.43814
5.53605e-05
-4.75896
5.40976e-05
-5.1029
4.94222e-05
-5.47187
4.14988e-05
-5.86743
2.68819e-05
-6.29157
1.57281e-05
-6.74622
1.38223e-05
-1.35515
1.53155e-05
-1.45293
1.90319e-05
-1.55804
1.98315e-05
-1.6706
2.25496e-05
-1.79141
2.93117e-05
-1.92079
3.41666e-05
-2.05961
3.82064e-05
-2.20853
4.42451e-05
-2.36812
4.64754e-05
-2.53934
4.52588e-05
-2.72287
4.88742e-05
-2.91959
5.26386e-05
-3.13073
5.53237e-05
-3.35699
5.73345e-05
-3.59965
5.84951e-05
-3.85993
5.87745e-05
-4.13893
5.80861e-05
-4.43814
5.70124e-05
-4.75897
5.46704e-05
-5.10291
4.95585e-05
-5.47188
4.06006e-05
-5.86745
2.72328e-05
-6.29159
1.55158e-05
-6.74624
1.42748e-05
-1.26374
1.41283e-05
-1.35515
1.55315e-05
-1.45293
1.98148e-05
-1.55804
2.36219e-05
-1.67061
2.65269e-05
-1.79141
3.2662e-05
-1.92079
3.7947e-05
-2.05961
3.98406e-05
-2.20852
4.61459e-05
-2.36812
4.63853e-05
-2.53934
4.71338e-05
-2.72287
5.1576e-05
-2.91959
5.48039e-05
-3.13073
5.75373e-05
-3.35699
5.94686e-05
-3.59965
6.07196e-05
-3.85993
6.066e-05
-4.13893
6.00969e-05
-4.43815
5.81181e-05
-4.75897
5.52613e-05
-5.10291
4.87539e-05
-5.47189
3.97098e-05
-5.86746
2.74209e-05
-6.2916
1.61e-05
-6.74625
1.40021e-05
-1.17856
1.3826e-05
-1.26374
1.36855e-05
-1.35514
1.62026e-05
-1.45293
2.22555e-05
-1.55804
2.77906e-05
-1.67061
3.09836e-05
-1.7914
3.60125e-05
-1.92079
3.91674e-05
-2.05961
4.25906e-05
-2.20852
4.69966e-05
-2.36812
4.70035e-05
-2.53934
4.95139e-05
-2.72286
5.40623e-05
-2.91959
5.70384e-05
-3.13073
5.96898e-05
-3.35699
6.16134e-05
-3.59965
6.27289e-05
-3.85993
6.26678e-05
-4.13893
6.16792e-05
-4.43815
5.98003e-05
-4.75897
5.60855e-05
-5.10292
4.76602e-05
-5.47189
3.91131e-05
-5.86747
2.8117e-05
-6.29161
1.6329e-05
-6.74627
1.18483e-05
-1.09916
1.4338e-05
-1.17856
1.33996e-05
-1.26374
1.42487e-05
-1.35514
1.81777e-05
-1.45292
2.54726e-05
-1.55804
3.15203e-05
-1.67061
3.43882e-05
-1.7914
3.94203e-05
-1.92079
4.04562e-05
-2.05961
4.50437e-05
-2.20852
4.78407e-05
-2.36812
4.78474e-05
-2.53934
5.18019e-05
-2.72286
5.64293e-05
-2.91959
5.9177e-05
-3.13073
6.18437e-05
-3.35699
6.37095e-05
-3.59965
6.48261e-05
-3.85994
6.46776e-05
-4.13894
6.37067e-05
-4.43815
6.09634e-05
-4.75898
5.62436e-05
-5.10293
4.60977e-05
-5.4719
3.96187e-05
-5.86748
2.82338e-05
-6.29162
1.58127e-05
-6.74629
1.20748e-05
-1.02496
1.23655e-05
-1.09915
1.38392e-05
-1.17856
1.41121e-05
-1.26374
1.57537e-05
-1.35514
1.99982e-05
-1.45292
2.74216e-05
-1.55803
3.42851e-05
-1.67061
3.81411e-05
-1.7914
4.32178e-05
-1.92079
4.11141e-05
-2.0596
4.74918e-05
-2.20851
4.79449e-05
-2.36812
5.01379e-05
-2.53934
5.51566e-05
-2.72286
5.84112e-05
-2.91959
6.13684e-05
-3.13073
6.39638e-05
-3.35699
6.58105e-05
-3.59965
6.68246e-05
-3.85994
6.66742e-05
-4.13894
6.52739e-05
-4.43816
6.22697e-05
-4.75898
5.54081e-05
-5.10294
4.63409e-05
-5.47191
3.93863e-05
-5.86749
2.92781e-05
-6.29163
1.62046e-05
-6.7463
1.11828e-05
-0.955986
1.27815e-05
-1.02497
1.4872e-05
-1.09915
1.53168e-05
-1.17856
1.48741e-05
-1.26374
1.68875e-05
-1.35514
2.33773e-05
-1.45291
2.90489e-05
-1.55803
3.76887e-05
-1.67061
4.24896e-05
-1.7914
4.57349e-05
-1.9208
4.33009e-05
-2.0596
4.70134e-05
-2.20851
4.89924e-05
-2.36812
5.22479e-05
-2.53933
5.69401e-05
-2.72286
6.06392e-05
-2.91959
6.34788e-05
-3.13073
6.60685e-05
-3.35699
6.78664e-05
-3.59966
6.89247e-05
-3.85994
6.85041e-05
-4.13894
6.703e-05
-4.43816
6.36226e-05
-4.75899
5.64096e-05
-5.10295
4.85079e-05
-5.47192
4.12291e-05
-5.8675
2.92179e-05
-6.29165
1.61011e-05
-6.74632
1.07814e-05
-0.891589
1.12226e-05
-0.955984
1.29058e-05
-1.02496
1.56279e-05
-1.09915
1.75983e-05
-1.17856
1.6932e-05
-1.26374
1.82304e-05
-1.35513
2.56266e-05
-1.45291
3.19034e-05
-1.55802
3.94557e-05
-1.6706
4.4586e-05
-1.7914
4.77944e-05
-1.9208
4.62181e-05
-2.0596
4.76031e-05
-2.20851
4.94332e-05
-2.36812
5.47567e-05
-2.53933
5.89828e-05
-2.72286
6.26286e-05
-2.91959
6.56046e-05
-3.13073
6.81448e-05
-3.35699
7.00065e-05
-3.59966
7.07935e-05
-3.85994
7.03898e-05
-4.13895
6.87093e-05
-4.43817
6.52669e-05
-4.759
5.80847e-05
-5.10296
5.14001e-05
-5.47193
4.07806e-05
-5.86752
2.98504e-05
-6.29166
1.57643e-05
-6.74633
7.70436e-06
-0.831498
1.12151e-05
-0.891589
1.16156e-05
-0.955983
1.44837e-05
-1.02496
1.52571e-05
-1.09915
1.83585e-05
-1.17856
1.97199e-05
-1.26374
2.16678e-05
-1.35513
2.64669e-05
-1.4529
3.32273e-05
-1.55802
4.43487e-05
-1.6706
4.56231e-05
-1.7914
4.87271e-05
-1.9208
4.83594e-05
-2.0596
4.73801e-05
-2.20851
5.24136e-05
-2.36811
5.71431e-05
-2.53933
6.10508e-05
-2.72285
6.47246e-05
-2.91959
6.76806e-05
-3.13073
7.02938e-05
-3.35699
7.19259e-05
-3.59966
7.27516e-05
-3.85994
7.22514e-05
-4.13895
7.05096e-05
-4.43817
6.6739e-05
-4.75901
6.10652e-05
-5.10297
5.19976e-05
-5.47194
4.30122e-05
-5.86753
3.01999e-05
-6.29168
1.58202e-05
-6.74635
5.20777e-06
-0.775397
8.10599e-06
-0.831495
1.04824e-05
-0.891588
1.26993e-05
-0.955981
1.41772e-05
-1.02496
1.79295e-05
-1.09915
1.90501e-05
-1.17856
2.23717e-05
-1.26374
2.52379e-05
-1.35513
2.82938e-05
-1.4529
3.65812e-05
-1.55801
4.3775e-05
-1.6706
4.68524e-05
-1.7914
4.96336e-05
-1.9208
4.92894e-05
-2.0596
4.98385e-05
-2.20851
5.47427e-05
-2.36811
5.94267e-05
-2.53933
6.31218e-05
-2.72285
6.67618e-05
-2.91959
6.98343e-05
-3.13073
7.22302e-05
-3.35699
7.39313e-05
-3.59966
7.46786e-05
-3.85995
7.41973e-05
-4.13895
7.21107e-05
-4.43818
6.84621e-05
-4.75902
6.25475e-05
-5.10298
5.45642e-05
-5.47195
4.28143e-05
-5.86754
3.17469e-05
-6.29169
1.59281e-05
-6.74637
5.09408e-06
-0.723122
5.01517e-06
-0.775394
8.19582e-06
-0.831493
1.08148e-05
-0.891586
1.28004e-05
-0.95598
1.5686e-05
-1.02496
2.04729e-05
-1.09915
2.27942e-05
-1.17856
2.50532e-05
-1.26374
2.74083e-05
-1.35513
3.30506e-05
-1.4529
3.79666e-05
-1.558
4.54676e-05
-1.6706
4.69551e-05
-1.79139
4.91591e-05
-1.9208
4.95048e-05
-2.0596
5.28962e-05
-2.20851
5.68219e-05
-2.36811
6.15902e-05
-2.53933
6.52281e-05
-2.72285
6.88587e-05
-2.91959
7.17726e-05
-3.13073
7.42487e-05
-3.35699
7.59096e-05
-3.59966
7.66934e-05
-3.85995
7.5914e-05
-4.13896
7.39179e-05
-4.43818
7.00698e-05
-4.75903
6.40236e-05
-5.10299
5.54697e-05
-5.47196
4.43412e-05
-5.86755
3.36423e-05
-6.29171
1.63037e-05
-6.74638
4.17985e-06
-0.674417
5.77616e-06
-0.723123
6.58126e-06
-0.775392
8.48284e-06
-0.83149
1.10022e-05
-0.891584
1.19969e-05
-0.955976
1.66774e-05
-1.02495
2.13375e-05
-1.09915
2.4824e-05
-1.17856
2.87737e-05
-1.26375
3.15923e-05
-1.35512
3.64745e-05
-1.45289
4.02561e-05
-1.558
4.56221e-05
-1.6706
4.73233e-05
-1.79139
4.88845e-05
-1.9208
4.99362e-05
-2.0596
5.41858e-05
-2.2085
5.94548e-05
-2.36811
6.38537e-05
-2.53932
6.73208e-05
-2.72285
7.07768e-05
-2.91958
7.379e-05
-3.13073
7.62441e-05
-3.35699
7.79747e-05
-3.59966
7.84735e-05
-3.85995
7.7837e-05
-4.13896
7.56107e-05
-4.43819
7.16274e-05
-4.75903
6.54681e-05
-5.103
5.6876e-05
-5.47197
4.51406e-05
-5.86757
3.39319e-05
-6.29173
1.72144e-05
-6.7464
4.1589e-06
-0.628949
3.71611e-06
-0.674415
6.60007e-06
-0.723123
7.27379e-06
-0.775391
7.92712e-06
-0.831487
1.11102e-05
-0.891583
1.21063e-05
-0.955971
1.76692e-05
-1.02495
2.25626e-05
-1.09915
2.60505e-05
-1.17856
3.06895e-05
-1.26374
3.45409e-05
-1.35512
4.08259e-05
-1.4529
4.30617e-05
-1.558
4.59708e-05
-1.6706
4.82847e-05
-1.79139
4.79001e-05
-1.9208
5.18385e-05
-2.0596
5.59359e-05
-2.2085
6.30035e-05
-2.36811
6.57959e-05
-2.53932
6.92321e-05
-2.72285
7.27489e-05
-2.91958
7.57851e-05
-3.13073
7.83259e-05
-3.35699
7.98022e-05
-3.59966
8.04651e-05
-3.85995
7.96261e-05
-4.13896
7.72883e-05
-4.43819
7.31433e-05
-4.75904
6.68396e-05
-5.10301
5.79581e-05
-5.47199
4.6685e-05
-5.86758
3.52793e-05
-6.29175
1.8079e-05
-6.74642
4.53451e-06
-0.586567
4.10071e-06
-0.628949
2.29769e-06
-0.674411
5.60045e-06
-0.723122
7.37001e-06
-0.77539
8.4354e-06
-0.831485
1.15218e-05
-0.891582
1.47247e-05
-0.955968
1.85709e-05
-1.02495
2.46517e-05
-1.09915
2.70843e-05
-1.17856
3.32262e-05
-1.26374
3.88017e-05
-1.35512
4.54267e-05
-1.4529
4.51901e-05
-1.55799
4.67897e-05
-1.6706
4.84739e-05
-1.79139
4.84748e-05
-1.9208
5.35573e-05
-2.05959
5.95031e-05
-2.2085
6.41082e-05
-2.3681
6.75173e-05
-2.53932
7.11821e-05
-2.72285
7.47202e-05
-2.91958
7.78641e-05
-3.13073
8.01704e-05
-3.35699
8.1844e-05
-3.59966
8.232e-05
-3.85996
8.14034e-05
-4.13897
7.89428e-05
-4.4382
7.47481e-05
-4.75905
6.81451e-05
-5.10302
5.92778e-05
-5.472
4.87414e-05
-5.86759
3.54327e-05
-6.29176
1.81879e-05
-6.74644
4.84163e-06
-0.547034
4.0644e-06
-0.586567
3.57705e-06
-0.628951
6.51411e-07
-0.674406
5.48278e-06
-0.72312
6.85421e-06
-0.775389
8.49977e-06
-0.831482
1.14651e-05
-0.891579
1.66303e-05
-0.955966
2.06711e-05
-1.02494
2.5718e-05
-1.09915
2.82443e-05
-1.17855
3.49008e-05
-1.26374
4.28819e-05
-1.35512
4.86921e-05
-1.4529
4.71834e-05
-1.558
4.66012e-05
-1.67059
4.89523e-05
-1.79139
5.02649e-05
-1.92079
5.50509e-05
-2.05959
6.13535e-05
-2.20849
6.54677e-05
-2.3681
6.9412e-05
-2.53932
7.31239e-05
-2.72285
7.6764e-05
-2.91958
7.97078e-05
-3.13073
8.22309e-05
-3.35699
8.37469e-05
-3.59967
8.41626e-05
-3.85996
8.31581e-05
-4.13897
8.06881e-05
-4.43821
7.62172e-05
-4.75906
6.94555e-05
-5.10303
6.04354e-05
-5.47201
4.95852e-05
-5.86761
3.57633e-05
-6.29178
1.86436e-05
-6.74645
5.03083e-06
-0.510167
4.26626e-06
-0.547034
3.93034e-06
-0.586567
2.37865e-06
-0.628952
1.25912e-06
-0.674402
5.61002e-06
-0.723118
8.05454e-06
-0.775388
1.0042e-05
-0.83148
1.22335e-05
-0.891575
1.85382e-05
-0.955964
2.2761e-05
-1.02494
2.58742e-05
-1.09914
2.81005e-05
-1.17854
3.67571e-05
-1.26373
4.60097e-05
-1.35511
4.92119e-05
-1.4529
4.74041e-05
-1.558
4.64446e-05
-1.67059
5.03367e-05
-1.79139
5.11002e-05
-1.92079
5.74135e-05
-2.05958
6.28106e-05
-2.20849
6.73593e-05
-2.3681
7.12343e-05
-2.53932
7.51336e-05
-2.72284
7.85839e-05
-2.91958
8.17655e-05
-3.13073
8.41526e-05
-3.35699
8.5637e-05
-3.59967
8.5984e-05
-3.85996
8.5009e-05
-4.13898
8.22941e-05
-4.43821
7.76859e-05
-4.75906
7.07586e-05
-5.10304
6.16653e-05
-5.47202
5.01858e-05
-5.86762
3.63964e-05
-6.2918
1.89454e-05
-6.74647
4.73298e-06
-0.475782
4.65244e-06
-0.510168
4.10621e-06
-0.547034
4.371e-06
-0.586569
2.49028e-06
-0.628954
3.08147e-06
-0.674399
5.39268e-06
-0.723116
8.66044e-06
-0.775387
1.16767e-05
-0.83148
1.53882e-05
-0.891572
2.25749e-05
-0.955964
2.43049e-05
-1.02494
2.62252e-05
-1.09914
3.0516e-05
-1.17854
3.85765e-05
-1.26373
4.5927e-05
-1.35511
4.81214e-05
-1.4529
4.70319e-05
-1.558
4.67907e-05
-1.67059
4.92767e-05
-1.79139
5.33126e-05
-1.92079
6.01585e-05
-2.05958
6.4494e-05
-2.20849
6.9004e-05
-2.3681
7.31768e-05
-2.53932
7.69201e-05
-2.72284
8.06125e-05
-2.91958
8.36859e-05
-3.13073
8.60622e-05
-3.35699
8.75056e-05
-3.59967
8.79053e-05
-3.85997
8.67144e-05
-4.13898
8.38982e-05
-4.43822
7.91381e-05
-4.75907
7.21466e-05
-5.10305
6.27708e-05
-5.47204
5.11155e-05
-5.86763
3.69434e-05
-6.29182
1.92723e-05
-6.74649
4.78835e-06
-0.443718
4.22255e-06
-0.475782
3.99009e-06
-0.510168
3.74406e-06
-0.547033
3.87718e-06
-0.586571
4.08833e-06
-0.628955
3.96431e-06
-0.674398
6.14658e-06
-0.723113
9.35079e-06
-0.775385
1.17929e-05
-0.831476
1.87155e-05
-0.891568
2.43993e-05
-0.955964
2.79559e-05
-1.02494
2.88475e-05
-1.09914
3.23518e-05
-1.17853
3.94056e-05
-1.26372
4.50557e-05
-1.35511
4.6747e-05
-1.4529
4.62996e-05
-1.558
4.68194e-05
-1.67059
5.30312e-05
-1.79139
5.50808e-05
-1.92078
6.19179e-05
-2.05958
6.63544e-05
-2.20849
7.08854e-05
-2.3681
7.48848e-05
-2.53931
7.89094e-05
-2.72284
8.25088e-05
-2.91958
8.55943e-05
-3.13073
8.7951e-05
-3.35699
8.94761e-05
-3.59967
8.96778e-05
-3.85997
8.84191e-05
-4.13899
8.54875e-05
-4.43822
8.06912e-05
-4.75908
7.34199e-05
-5.10306
6.39533e-05
-5.47205
5.19121e-05
-5.86765
3.74787e-05
-6.29183
1.96174e-05
-6.74651
5.56756e-06
-0.41381
4.06704e-06
-0.443718
5.0753e-06
-0.475783
4.13519e-06
-0.510168
4.51908e-06
-0.547034
4.67876e-06
-0.586571
5.96298e-06
-0.628957
5.8524e-06
-0.674397
7.16488e-06
-0.723111
1.12749e-05
-0.775384
1.51024e-05
-0.831472
2.24263e-05
-0.891566
2.65695e-05
-0.955963
3.15739e-05
-1.02494
3.0973e-05
-1.09914
3.45772e-05
-1.17853
4.07487e-05
-1.26371
4.45553e-05
-1.35511
4.52563e-05
-1.4529
4.62726e-05
-1.558
4.88893e-05
-1.67058
5.16871e-05
-1.79139
5.86068e-05
-1.92078
6.40392e-05
-2.05958
6.81518e-05
-2.20848
7.24993e-05
-2.36809
7.68064e-05
-2.53931
8.0768e-05
-2.72284
8.4393e-05
-2.91958
8.74827e-05
-3.13073
8.99434e-05
-3.35699
9.12952e-05
-3.59967
9.14507e-05
-3.85997
9.011e-05
-4.13899
8.71851e-05
-4.43823
8.21104e-05
-4.75909
7.47862e-05
-5.10307
6.50205e-05
-5.47206
5.27164e-05
-5.86767
3.80698e-05
-6.29185
1.99259e-05
-6.74653
6.17614e-06
-0.385913
5.59465e-06
-0.413812
4.16952e-06
-0.443717
5.43691e-06
-0.475784
5.65838e-06
-0.510169
4.51326e-06
-0.547034
5.0172e-06
-0.58657
6.29755e-06
-0.628957
7.49215e-06
-0.674398
9.6959e-06
-0.723109
1.33109e-05
-0.775382
2.01349e-05
-0.83147
2.52253e-05
-0.891564
3e-05
-0.955961
3.32138e-05
-1.02495
3.35893e-05
-1.09914
3.82408e-05
-1.17853
4.20709e-05
-1.26371
4.40237e-05
-1.3551
4.41452e-05
-1.4529
4.64333e-05
-1.55799
4.99205e-05
-1.67058
5.49773e-05
-1.79138
6.05315e-05
-1.92077
6.55861e-05
-2.05957
6.98013e-05
-2.20848
7.43504e-05
-2.36809
7.86002e-05
-2.53931
8.26142e-05
-2.72284
8.62593e-05
-2.91958
8.94745e-05
-3.13073
9.17839e-05
-3.35699
9.31155e-05
-3.59967
9.32114e-05
-3.85997
9.19158e-05
-4.139
8.87385e-05
-4.43824
8.36377e-05
-4.7591
7.60294e-05
-5.10308
6.60676e-05
-5.47208
5.35915e-05
-5.86768
3.85928e-05
-6.29187
2.02276e-05
-6.74655
5.76019e-06
-0.359922
6.57213e-06
-0.385914
5.09418e-06
-0.413813
5.65794e-06
-0.443718
3.51284e-06
-0.475782
3.95196e-06
-0.510168
3.94353e-06
-0.547033
5.21249e-06
-0.586569
7.43951e-06
-0.628957
1.05287e-05
-0.674399
1.20359e-05
-0.723108
1.7311e-05
-0.775379
2.45394e-05
-0.831469
2.66149e-05
-0.891561
3.10272e-05
-0.955959
3.37828e-05
-1.02495
3.62346e-05
-1.09914
3.9219e-05
-1.17852
4.37482e-05
-1.26371
4.28215e-05
-1.3551
4.44916e-05
-1.4529
4.62984e-05
-1.55799
5.23029e-05
-1.67058
5.64199e-05
-1.79138
6.2746e-05
-1.92077
6.72374e-05
-2.05957
7.1591e-05
-2.20848
7.60727e-05
-2.36809
8.03873e-05
-2.53931
8.44429e-05
-2.72284
8.82284e-05
-2.91957
9.13159e-05
-3.13073
9.36266e-05
-3.35699
9.49239e-05
-3.59968
9.5092e-05
-3.85998
9.35709e-05
-4.139
9.04088e-05
-4.43824
8.5027e-05
-4.75911
7.72547e-05
-5.10309
6.72004e-05
-5.47209
5.43776e-05
-5.8677
3.91084e-05
-6.29189
2.05865e-05
-6.74657
5.08856e-06
-0.335658
6.06141e-06
-0.359921
5.86755e-06
-0.385915
4.46213e-06
-0.413811
4.9972e-06
-0.443719
4.12333e-06
-0.475782
3.19712e-06
-0.510168
5.07429e-06
-0.547033
6.42856e-06
-0.586568
9.96796e-06
-0.628956
1.30733e-05
-0.6744
1.46516e-05
-0.723106
2.01368e-05
-0.775375
2.52825e-05
-0.831468
2.93548e-05
-0.891559
3.06146e-05
-0.955956
3.37796e-05
-1.02494
3.65842e-05
-1.09913
4.05024e-05
-1.17852
4.26907e-05
-1.26371
4.22282e-05
-1.3551
4.51078e-05
-1.4529
4.84852e-05
-1.55799
5.37541e-05
-1.67058
5.83035e-05
-1.79137
6.46148e-05
-1.92077
6.88152e-05
-2.05957
7.32652e-05
-2.20847
7.77959e-05
-2.36809
8.21595e-05
-2.53931
8.63726e-05
-2.72283
9.00506e-05
-2.91957
9.31601e-05
-3.13072
9.54582e-05
-3.35699
9.68552e-05
-3.59968
9.68184e-05
-3.85998
9.53499e-05
-4.13901
9.19306e-05
-4.43825
8.63991e-05
-4.75912
7.85857e-05
-5.1031
6.8213e-05
-5.4721
5.51512e-05
-5.86771
3.97403e-05
-6.29191
2.08425e-05
-6.74659
5.21914e-06
-0.313028
5.39032e-06
-0.335657
6.00948e-06
-0.359921
5.60745e-06
-0.385916
4.25667e-06
-0.413811
4.12078e-06
-0.443719
5.93901e-06
-0.475785
5.57411e-06
-0.510168
7.30332e-06
-0.547033
8.40858e-06
-0.586567
1.2811e-05
-0.628956
1.30198e-05
-0.674398
1.71258e-05
-0.723103
2.3442e-05
-0.775373
2.59041e-05
-0.831465
3.222e-05
-0.891561
3.23265e-05
-0.955954
3.59858e-05
-1.02494
3.55446e-05
-1.09913
3.96173e-05
-1.17852
4.19466e-05
-1.26371
4.2568e-05
-1.3551
4.48137e-05
-1.45289
5.00726e-05
-1.55798
5.5879e-05
-1.67057
6.02832e-05
-1.79137
6.57204e-05
-1.92077
7.03588e-05
-2.05957
7.49264e-05
-2.20847
7.95046e-05
-2.36808
8.40327e-05
-2.5393
8.81591e-05
-2.72283
9.1876e-05
-2.91957
9.49941e-05
-3.13072
9.74145e-05
-3.35699
9.863e-05
-3.59968
9.86741e-05
-3.85998
9.69738e-05
-4.13901
9.3434e-05
-4.43826
8.78909e-05
-4.75913
7.97799e-05
-5.10312
6.92063e-05
-5.47212
5.60892e-05
-5.86773
4.01785e-05
-6.29193
2.11589e-05
-6.74662
5.90736e-06
-0.29194
4.51761e-06
-0.313027
5.7416e-06
-0.335657
6.01771e-06
-0.359922
6.19748e-06
-0.385918
5.32557e-06
-0.413812
5.6235e-06
-0.443719
5.59383e-06
-0.475785
7.32617e-06
-0.510168
8.6406e-06
-0.547034
9.94493e-06
-0.586564
1.44684e-05
-0.628958
1.51287e-05
-0.674396
1.89322e-05
-0.723098
2.70447e-05
-0.775374
3.04369e-05
-0.831463
3.45218e-05
-0.891563
3.34186e-05
-0.955952
3.80235e-05
-1.02495
3.71449e-05
-1.09913
3.9605e-05
-1.17851
4.13936e-05
-1.26371
4.24289e-05
-1.3551
4.45571e-05
-1.45289
5.28325e-05
-1.55798
5.75974e-05
-1.67057
6.21923e-05
-1.79137
6.70931e-05
-1.92076
7.19243e-05
-2.05956
7.65689e-05
-2.20847
8.13139e-05
-2.36808
8.57685e-05
-2.5393
8.99493e-05
-2.72283
9.36931e-05
-2.91957
9.69528e-05
-3.13072
9.92142e-05
-3.35699
0.000100537
-3.59968
0.000100371
-3.85999
9.85791e-05
-4.13902
9.50678e-05
-4.43827
8.92321e-05
-4.75914
8.09546e-05
-5.10313
7.04018e-05
-5.47213
5.67526e-05
-5.86775
4.07386e-05
-6.29195
2.14716e-05
-6.74664
6.62897e-06
-0.27226
4.6481e-06
-0.29194
4.95434e-06
-0.313026
5.1278e-06
-0.335656
6.57943e-06
-0.359922
6.30208e-06
-0.385919
6.78464e-06
-0.413813
5.51354e-06
-0.443719
5.46198e-06
-0.475783
8.21231e-06
-0.510168
8.94384e-06
-0.547033
1.17835e-05
-0.586561
1.59676e-05
-0.628958
1.78159e-05
-0.674395
2.3336e-05
-0.723094
2.82933e-05
-0.775372
3.12911e-05
-0.83146
3.17315e-05
-0.891562
3.43324e-05
-0.955948
3.69372e-05
-1.02494
3.897e-05
-1.09913
4.05185e-05
-1.17851
4.12485e-05
-1.26371
4.35923e-05
-1.3551
4.83484e-05
-1.45288
5.4186e-05
-1.55798
5.9595e-05
-1.67057
6.36486e-05
-1.79136
6.8669e-05
-1.92076
7.34527e-05
-2.05956
7.83092e-05
-2.20847
8.29913e-05
-2.36808
8.75094e-05
-2.5393
9.17324e-05
-2.72283
9.56343e-05
-2.91957
9.87565e-05
-3.13072
0.000101148
-3.35699
0.000102284
-3.59968
0.00010205
-3.85999
0.000100324
-4.13902
9.65389e-05
-4.43827
9.05534e-05
-4.75915
8.23682e-05
-5.10314
7.12507e-05
-5.47215
5.75868e-05
-5.86776
4.12964e-05
-6.29197
2.17415e-05
-6.74666
6.43428e-06
-0.25391
5.9277e-06
-0.272261
3.80431e-06
-0.291939
5.84759e-06
-0.313027
6.2474e-06
-0.335655
5.53227e-06
-0.359921
5.00307e-06
-0.385917
5.33196e-06
-0.413813
5.1165e-06
-0.443718
6.34863e-06
-0.475781
9.20225e-06
-0.510168
1.04131e-05
-0.547031
1.45561e-05
-0.58656
1.79723e-05
-0.628959
2.16766e-05
-0.674393
2.65852e-05
-0.723093
2.82671e-05
-0.775369
3.15289e-05
-0.831459
3.0765e-05
-0.891558
3.45941e-05
-0.955946
3.60836e-05
-1.02494
3.88663e-05
-1.09912
4.13298e-05
-1.17851
4.05145e-05
-1.26371
4.53529e-05
-1.35509
5.12803e-05
-1.45288
5.62304e-05
-1.55797
6.0625e-05
-1.67056
6.52835e-05
-1.79136
7.00908e-05
-1.92076
7.51165e-05
-2.05956
7.99212e-05
-2.20846
8.46749e-05
-2.36808
8.92449e-05
-2.5393
9.36382e-05
-2.72283
9.74239e-05
-2.91957
0.000100695
-3.13072
0.000102921
-3.35699
0.000104013
-3.59968
0.000103874
-3.85999
0.000101897
-4.13903
9.79894e-05
-4.43828
9.21442e-05
-4.75916
8.3378e-05
-5.10315
7.23126e-05
-5.47216
5.84161e-05
-5.86778
4.17764e-05
-6.29199
2.20438e-05
-6.74668
6.19473e-06
-0.236792
6.05681e-06
-0.25391
4.39916e-06
-0.272262
5.59324e-06
-0.291938
5.78246e-06
-0.313026
6.38805e-06
-0.335656
5.13414e-06
-0.359921
3.77877e-06
-0.385916
4.86849e-06
-0.413813
6.51591e-06
-0.443718
7.96305e-06
-0.47578
8.47013e-06
-0.510166
1.19711e-05
-0.547029
1.80627e-05
-0.58656
1.98176e-05
-0.628957
2.27922e-05
-0.674389
2.66959e-05
-0.723091
2.98861e-05
-0.775368
3.32004e-05
-0.831462
3.16141e-05
-0.891555
3.38122e-05
-0.955944
3.51552e-05
-1.02494
3.8263e-05
-1.09912
3.95117e-05
-1.17851
4.07609e-05
-1.2637
4.81236e-05
-1.35509
5.34308e-05
-1.45288
5.72324e-05
-1.55797
6.20583e-05
-1.67056
6.67136e-05
-1.79136
7.17325e-05
-1.92075
7.6646e-05
-2.05955
8.15405e-05
-2.20846
8.63546e-05
-2.36807
9.11011e-05
-2.53929
9.53969e-05
-2.72282
9.93475e-05
-2.91957
0.000102474
-3.13072
0.000104678
-3.357
0.000105892
-3.59969
0.000105522
-3.86
0.00010345
-4.13903
9.97322e-05
-4.43829
9.32849e-05
-4.75917
8.46393e-05
-5.10316
7.33674e-05
-5.47218
5.91337e-05
-5.8678
4.23227e-05
-6.29201
2.23048e-05
-6.7467
5.76937e-06
-0.220834
5.94729e-06
-0.236791
5.66397e-06
-0.253912
6.02097e-06
-0.272262
5.30447e-06
-0.291938
5.7918e-06
-0.313026
4.2485e-06
-0.335655
4.68869e-06
-0.359922
4.97196e-06
-0.385916
5.87517e-06
-0.413812
7.14272e-06
-0.443718
7.46776e-06
-0.475779
1.01296e-05
-0.510164
1.31409e-05
-0.547024
1.99156e-05
-0.58656
1.94983e-05
-0.628953
2.53722e-05
-0.674388
3.09951e-05
-0.723092
3.19229e-05
-0.775366
3.25378e-05
-0.831463
3.19813e-05
-0.891553
3.31475e-05
-0.955942
3.62111e-05
-1.02494
3.84106e-05
-1.09912
3.94292e-05
-1.17851
4.2657e-05
-1.2637
4.96126e-05
-1.35509
5.42333e-05
-1.45287
5.88071e-05
-1.55797
6.33995e-05
-1.67056
6.82877e-05
-1.79135
7.31922e-05
-1.92075
7.81974e-05
-2.05955
8.31569e-05
-2.20846
8.81523e-05
-2.36807
9.28156e-05
-2.53929
9.72877e-05
-2.72282
0.000101115
-2.91956
0.000104237
-3.13072
0.000106586
-3.357
0.000107592
-3.59969
0.000107152
-3.86
0.000105312
-4.13904
0.000100989
-4.4383
9.47095e-05
-4.75918
8.5893e-05
-5.10318
7.42812e-05
-5.47219
5.99436e-05
-5.86781
4.27937e-05
-6.29203
2.26265e-05
-6.74673
5.87641e-06
-0.205947
5.93032e-06
-0.220834
6.49739e-06
-0.236792
5.6748e-06
-0.253911
5.98921e-06
-0.272263
5.23245e-06
-0.291937
4.14697e-06
-0.313026
3.61539e-06
-0.335654
4.15133e-06
-0.359922
4.19897e-06
-0.385914
5.58434e-06
-0.41381
6.6138e-06
-0.443717
8.62187e-06
-0.475777
1.27539e-05
-0.510164
1.58322e-05
-0.54702
1.90334e-05
-0.58656
2.14656e-05
-0.62895
3.16177e-05
-0.674389
3.25561e-05
-0.723093
3.04952e-05
-0.775364
3.15892e-05
-0.831462
3.15935e-05
-0.891552
3.35503e-05
-0.955939
3.47392e-05
-1.02493
3.78455e-05
-1.09912
4.0732e-05
-1.17851
4.5046e-05
-1.26369
5.10351e-05
-1.35508
5.5779e-05
-1.45287
6.0103e-05
-1.55796
6.4893e-05
-1.67055
6.97116e-05
-1.79135
7.46957e-05
-1.92075
7.97446e-05
-2.05955
8.48885e-05
-2.20845
8.98142e-05
-2.36807
9.46597e-05
-2.53929
9.9027e-05
-2.72282
0.000102868
-2.91956
0.000106153
-3.13072
0.000108316
-3.357
0.000109274
-3.59969
0.000109102
-3.86001
0.000106663
-4.13904
0.000102553
-4.4383
9.61271e-05
-4.75919
8.69829e-05
-5.10319
7.53115e-05
-5.47221
6.06448e-05
-5.86783
4.33847e-05
-6.29205
2.28403e-05
-6.74675
5.55864e-06
-0.19207
6.31815e-06
-0.205948
6.74072e-06
-0.220835
6.90866e-06
-0.236794
5.82993e-06
-0.253911
4.40301e-06
-0.272262
4.71158e-06
-0.291938
4.18562e-06
-0.313026
3.8493e-06
-0.335654
3.1964e-06
-0.359921
3.57196e-06
-0.385912
5.90785e-06
-0.41381
6.79305e-06
-0.443715
1.00951e-05
-0.475775
1.30458e-05
-0.510161
1.81907e-05
-0.547019
1.98012e-05
-0.586558
2.29376e-05
-0.628941
3.0779e-05
-0.674387
3.07029e-05
-0.723093
3.09811e-05
-0.775364
3.25765e-05
-0.831463
3.09229e-05
-0.891549
3.37306e-05
-0.955938
3.432e-05
-1.02493
3.87632e-05
-1.09912
4.20199e-05
-1.17851
4.78141e-05
-1.26369
5.288e-05
-1.35508
5.69668e-05
-1.45287
6.1545e-05
-1.55796
6.62427e-05
-1.67055
7.11457e-05
-1.79134
7.61802e-05
-1.92074
8.14064e-05
-2.05954
8.64903e-05
-2.20845
9.16025e-05
-2.36806
9.63576e-05
-2.53929
0.000100753
-2.72282
0.000104773
-2.91956
0.000107892
-3.13072
0.000110028
-3.357
0.000111285
-3.59969
0.000110524
-3.86001
0.000108339
-4.13905
0.000104112
-4.43831
9.73632e-05
-4.7592
8.82104e-05
-5.1032
7.62049e-05
-5.47222
6.15146e-05
-5.86785
4.37721e-05
-6.29207
2.31617e-05
-6.74677
5.43397e-06
-0.179121
6.06644e-06
-0.19207
6.53661e-06
-0.205948
7.06382e-06
-0.220835
6.46131e-06
-0.236794
5.16962e-06
-0.253912
4.55794e-06
-0.272262