/*--------------------------------*- C++ -*----------------------------------*\
| =========                 |                                                 |
| \\      /  F ield         | OpenFOAM: The Open Source CFD Toolbox           |
|  \\    /   O peration     | Version:  2212                                  |
|   \\  /    A nd           | Website:  www.openfoam.com                      |
|    \\/     M anipulation  |                                                 |
\*---------------------------------------------------------------------------*/
FoamFile
{
    version     2.0;
    format      ascii;
    arch        "LSB;label=32;scalar=64";
    class       volScalarField;
    location    "100";
    object      k;
}
// * * * * * * * * * * * * * * * * * * * * * * * * * * * * * * * * * * * * * //

dimensions      [0 2 -2 0 0 0 0];

internalField   nonuniform List<scalar> 
165000
(
5.8608e-05
4.73314e-05
6.06423e-05
3.49643e-05
4.83649e-05
6.13163e-05
2.17269e-05
3.36926e-05
4.8874e-05
6.24133e-05
1.32586e-05
1.97757e-05
3.27664e-05
4.89954e-05
6.33151e-05
8.55372e-06
1.14821e-05
1.89606e-05
3.21617e-05
4.90397e-05
6.38524e-05
6.10881e-06
7.13461e-06
1.07553e-05
1.77011e-05
3.1006e-05
4.90089e-05
6.43936e-05
5.10044e-06
5.10947e-06
6.56479e-06
9.61474e-06
1.69129e-05
3.04154e-05
4.91162e-05
6.46848e-05
4.5143e-06
4.29641e-06
4.73435e-06
5.73946e-06
9.05153e-06
1.57098e-05
2.91319e-05
4.92175e-05
6.50468e-05
0.0999777
4.03786e-06
4.02036e-06
4.25068e-06
5.36089e-06
8.14508e-06
1.493e-05
2.84165e-05
4.88914e-05
6.56305e-05
2.09946
3.58945e-06
3.72472e-06
3.5954e-06
4.0239e-06
4.82588e-06
7.7065e-06
1.38038e-05
2.70662e-05
4.83322e-05
6.57034e-05
1.69637
0.124781
3.2373e-06
3.3426e-06
3.42351e-06
3.67984e-06
4.57933e-06
7.01274e-06
1.30908e-05
2.59977e-05
4.76722e-05
6.56454e-05
0.973652
0.478703
0.00487957
2.88861e-06
3.17593e-06
3.16823e-06
3.51478e-06
4.22118e-06
6.67313e-06
1.20427e-05
2.47528e-05
4.67846e-05
6.53908e-05
0.535552
0.36605
0.048404
0.00022269
2.75366e-06
2.89865e-06
3.04397e-06
3.23138e-06
4.04847e-06
6.10659e-06
1.14548e-05
2.33731e-05
4.55418e-05
6.53085e-05
0.179264
0.243653
0.100833
0.00490789
1.49345e-05
2.51669e-06
2.74758e-06
2.8385e-06
3.0991e-06
3.77941e-06
5.82482e-06
1.04751e-05
2.21665e-05
4.42369e-05
6.56186e-05
0.0460893
0.081573
0.0759493
0.0234094
0.000592316
3.37969e-06
2.40693e-06
2.55653e-06
2.75532e-06
2.89542e-06
3.64821e-06
5.3198e-06
9.96307e-06
2.06399e-05
4.24627e-05
6.50054e-05
0.00950787
0.0186916
0.0322542
0.0213833
0.00452303
8.48687e-05
2.46327e-06
2.28337e-06
2.48386e-06
2.63422e-06
2.80302e-06
3.42509e-06
5.07324e-06
9.06021e-06
1.94381e-05
4.0752e-05
6.5168e-05
0.000860023
0.0028734
0.00833646
0.0134051
0.00709853
0.00072977
1.57035e-05
2.25004e-06
2.20278e-06
2.36042e-06
2.50034e-06
2.64046e-06
3.30016e-06
4.65433e-06
8.58944e-06
1.78927e-05
3.85679e-05
6.37953e-05
4.66006e-06
0.00067923
0.00216127
0.004494
0.00540091
0.0024566
0.00014343
4.835e-06
2.17211e-06
2.10074e-06
2.30095e-06
2.38291e-06
2.57168e-06
3.08045e-06
4.46097e-06
7.76972e-06
1.67388e-05
3.65333e-05
6.23483e-05
2.26359e-06
8.37894e-06
0.000714595
0.0012904
0.0022713
0.00214715
0.000752908
3.34004e-05
2.82446e-06
2.07447e-06
2.03525e-06
2.2551e-06
2.33587e-06
2.49483e-06
2.98115e-06
4.17986e-06
7.36932e-06
1.52791e-05
3.41996e-05
6.02973e-05
2.19244e-06
2.85048e-06
2.16967e-05
0.0006519
0.00108553
0.00135506
0.000809591
0.00018628
1.03714e-05
2.34768e-06
2.03356e-06
2.00351e-06
2.13438e-06
2.20606e-06
2.45972e-06
2.85554e-06
4.04872e-06
6.71036e-06
1.42622e-05
3.20651e-05
5.89224e-05
2.5685e-06
2.66205e-06
3.96843e-06
3.5574e-05
0.000608052
0.000875696
0.000630947
0.000287326
5.38569e-05
4.96317e-06
2.2243e-06
1.9885e-06
1.96093e-06
2.06341e-06
2.15491e-06
2.42785e-06
2.80442e-06
3.85939e-06
6.39969e-06
1.29516e-05
2.98297e-05
5.66918e-05
3.68109e-06
2.67459e-06
3.56997e-06
4.92018e-06
3.71616e-05
0.000374995
0.000552545
0.000298982
0.000114034
1.96104e-05
3.30229e-06
2.11112e-06
1.9716e-06
1.90565e-06
2.04654e-06
2.11937e-06
2.42902e-06
2.76122e-06
3.75447e-06
5.92245e-06
1.2123e-05
2.7598e-05
5.4364e-05
6.53767e-06
3.47656e-06
3.50853e-06
4.02775e-06
5.61216e-06
1.16339e-05
0.000342708
0.000346248
0.000140373
5.10793e-05
1.00592e-05
2.81666e-06
2.17539e-06
1.9648e-06
1.89833e-06
1.90377e-06
2.11343e-06
2.4298e-06
2.7189e-06
3.57112e-06
5.69661e-06
1.09867e-05
2.53991e-05
5.21392e-05
1.57886e-05
4.76687e-06
3.92312e-06
4.0055e-06
4.47301e-06
6.1058e-06
1.19804e-05
0.000227699
0.000290078
0.000104107
2.7143e-05
7.76345e-06
2.99044e-06
2.28608e-06
1.9545e-06
1.87082e-06
1.7946e-06
2.07847e-06
2.40804e-06
2.67188e-06
3.46919e-06
5.37433e-06
1.03778e-05
2.32128e-05
4.94029e-05
4.67184e-05
7.70997e-06
4.80105e-06
4.38523e-06
4.34736e-06
5.05216e-06
6.55838e-06
1.23774e-05
0.000109687
0.000245116
0.000132487
2.27599e-05
5.87594e-06
3.24811e-06
2.42948e-06
1.99877e-06
1.81568e-06
1.78023e-06
2.04105e-06
2.4045e-06
2.63898e-06
3.40918e-06
5.22521e-06
9.44727e-06
2.11169e-05
4.67146e-05
0.000147741
1.63878e-05
7.30849e-06
5.01489e-06
4.43823e-06
4.80755e-06
5.45454e-06
6.94948e-06
1.03646e-05
3.95347e-05
0.000143925
0.000163594
3.84031e-05
5.655e-06
3.42827e-06
2.71947e-06
2.03361e-06
1.79693e-06
1.76495e-06
2.03e-06
2.3916e-06
2.61666e-06
3.38399e-06
5.01993e-06
8.98818e-06
1.89809e-05
4.37552e-05
0.000461456
4.35604e-05
1.32696e-05
6.75271e-06
5.08888e-06
4.75958e-06
5.21516e-06
5.84191e-06
7.33022e-06
8.76807e-06
1.69484e-05
7.09481e-05
0.000174497
0.000104173
9.45737e-06
3.53747e-06
2.91719e-06
2.14453e-06
1.79363e-06
1.73957e-06
2.03696e-06
2.40086e-06
2.61358e-06
3.32853e-06
4.91734e-06
8.23135e-06
1.70826e-05
4.06549e-05
0.00124557
0.000127904
3.36945e-05
1.19548e-05
7.06009e-06
5.1043e-06
5.13236e-06
5.57823e-06
6.09254e-06
7.32861e-06
8.24775e-06
1.03963e-05
3.2028e-05
0.000134096
0.000168625
4.05912e-05
3.68271e-06
2.98079e-06
2.16082e-06
1.79099e-06
1.74501e-06
2.0429e-06
2.38913e-06
2.61128e-06
3.27352e-06
4.74455e-06
7.86465e-06
1.50803e-05
3.73636e-05
0.00200588
0.000355135
9.80299e-05
2.89149e-05
1.08578e-05
6.3247e-06
5.29488e-06
5.56453e-06
5.84136e-06
6.33153e-06
7.10637e-06
8.12083e-06
8.50155e-06
1.52417e-05
7.49995e-05
0.00018337
0.000104005
5.43463e-06
3.0911e-06
2.25573e-06
1.78031e-06
1.73128e-06
2.04269e-06
2.3962e-06
2.61208e-06
3.23664e-06
4.65292e-06
7.26131e-06
1.34069e-05
3.42196e-05
0.00192602
0.000822857
0.000293535
9.15115e-05
2.49202e-05
8.94182e-06
6.29486e-06
5.67304e-06
5.79334e-06
6.13456e-06
6.44762e-06
6.72863e-06
7.89636e-06
8.34215e-06
1.03904e-05
3.70208e-05
0.00013599
0.000143343
2.19422e-05
3.55156e-06
2.31179e-06
1.78747e-06
1.73377e-06
2.0469e-06
2.39692e-06
2.6009e-06
3.21351e-06
4.64806e-06
6.98675e-06
1.16856e-05
3.08422e-05
0.00191197
0.000955866
0.000712548
0.000315402
7.98619e-05
1.54054e-05
8.42086e-06
6.24577e-06
5.93003e-06
6.0783e-06
6.25e-06
6.40896e-06
7.00485e-06
8.04871e-06
8.46246e-06
1.04001e-05
2.03805e-05
7.31361e-05
0.000138441
4.52189e-05
4.04402e-06
2.46011e-06
1.79332e-06
1.73226e-06
2.03834e-06
2.40004e-06
2.61047e-06
3.22859e-06
4.57384e-06
6.5872e-06
1.02953e-05
2.78951e-05
0.00103766
0.000775869
0.000946845
0.000821195
0.000296451
3.92057e-05
1.21695e-05
7.82169e-06
6.41266e-06
6.14504e-06
6.20886e-06
6.25679e-06
6.98212e-06
8.05449e-06
9.96719e-06
1.14236e-05
1.09969e-05
1.52684e-05
3.80815e-05
0.000105633
6.04721e-05
4.76595e-06
2.64348e-06
1.82972e-06
1.7348e-06
2.04196e-06
2.41223e-06
2.62232e-06
3.19432e-06
4.58182e-06
6.41798e-06
8.93678e-06
2.47957e-05
0.000668868
0.000750227
0.000437805
0.00169401
0.00112079
0.0001368
2.21124e-05
1.05087e-05
7.67783e-06
6.55954e-06
6.30952e-06
6.25105e-06
6.60944e-06
8.21563e-06
1.16952e-05
1.42447e-05
1.47817e-05
1.30934e-05
1.36206e-05
2.18196e-05
7.12739e-05
7.01089e-05
8.04317e-06
2.83807e-06
1.87142e-06
1.75434e-06
2.04573e-06
2.45183e-06
2.67751e-06
3.21925e-06
4.60861e-06
6.18938e-06
7.89659e-06
2.22489e-05
0.000609873
0.000662606
0.000336387
0.00163289
0.00295326
0.000556214
5.77829e-05
1.5129e-05
9.70395e-06
7.64048e-06
6.40817e-06
6.39452e-06
6.49164e-06
7.35894e-06
1.00831e-05
1.27909e-05
1.3475e-05
1.41318e-05
1.35003e-05
1.26455e-05
1.52095e-05
4.41714e-05
6.94888e-05
1.38933e-05
3.03302e-06
1.96114e-06
1.80142e-06
2.08062e-06
2.52401e-06
2.7661e-06
3.19755e-06
4.58569e-06
6.0923e-06
6.92497e-06
1.97795e-05
0.000709729
0.000549145
0.000403395
0.000543866
0.00525763
0.00221055
0.000207501
2.78926e-05
1.23764e-05
8.96055e-06
6.9501e-06
6.48434e-06
6.49593e-06
6.84427e-06
9.30257e-06
1.0677e-05
1.0946e-05
1.09227e-05
1.13703e-05
1.27117e-05
1.20201e-05
1.28303e-05
2.87372e-05
6.43498e-05
2.03443e-05
3.49617e-06
2.06475e-06
1.83761e-06
2.147e-06
2.62481e-06
2.86418e-06
3.24117e-06
4.61356e-06
5.97749e-06
6.23719e-06
1.78808e-05
0.00080877
0.000728325
0.000569391
0.000538113
0.00235957
0.00710018
0.000844002
7.61844e-05
1.76346e-05
1.10938e-05
8.15783e-06
6.62237e-06
6.66455e-06
6.79137e-06
7.65272e-06
9.88739e-06
9.66591e-06
9.67143e-06
1.0307e-05
1.09472e-05
1.17033e-05
1.17527e-05
1.19435e-05
2.03575e-05
5.78044e-05
2.62124e-05
4.06365e-06
2.20704e-06
1.9195e-06
2.24362e-06
2.7723e-06
2.97294e-06
3.28082e-06
4.67534e-06
5.93293e-06
5.61916e-06
1.62984e-05
0.00111753
0.000979696
0.000857372
0.000728617
0.00103432
0.0105715
0.00360801
0.000283504
3.26544e-05
1.38156e-05
9.83454e-06
7.10558e-06
6.62971e-06
6.81338e-06
7.21792e-06
8.8066e-06
9.23342e-06
9.36567e-06
9.8546e-06
1.07349e-05
1.10937e-05
1.20371e-05
1.20456e-05
1.18658e-05
1.59792e-05
5.1658e-05
3.35306e-05
4.5872e-06
2.39639e-06
1.98955e-06
2.44128e-06
2.9184e-06
3.11897e-06
3.42063e-06
4.86972e-06
5.91898e-06
5.23502e-06
1.54001e-05
0.00159998
0.00143074
0.00137677
0.0012548
0.0011838
0.00291738
0.0136897
0.00116805
9.08349e-05
1.92522e-05
1.18155e-05
7.94961e-06
6.73092e-06
6.83993e-06
7.21649e-06
7.81965e-06
9.01982e-06
9.16973e-06
1.00444e-05
1.08067e-05
1.21774e-05
1.19116e-05
1.20533e-05
1.19908e-05
1.16708e-05
1.4617e-05
4.79132e-05
4.2363e-05
6.2011e-06
2.77235e-06
2.13353e-06
2.61913e-06
3.09237e-06
3.29313e-06
3.55499e-06
5.15995e-06
5.94189e-06
4.88911e-06
1.51173e-05
0.00227455
0.00212121
0.00217504
0.00205598
0.00199538
0.00234643
0.0189658
0.00506996
0.000339891
3.5458e-05
1.46995e-05
9.53772e-06
7.1422e-06
6.82028e-06
7.26605e-06
7.78681e-06
8.36516e-06
9.19066e-06
9.55673e-06
1.24531e-05
1.48625e-05
1.5977e-05
1.47682e-05
1.31915e-05
1.26444e-05
1.21984e-05
1.44381e-05
3.98095e-05
4.99812e-05
1.16715e-05
3.08588e-06
2.35425e-06
2.9757e-06
3.29929e-06
3.45926e-06
3.69271e-06
5.39746e-06
6.04726e-06
4.68327e-06
1.51249e-05
0.00312703
0.00305229
0.0033727
0.00325372
0.00327369
0.00321333
0.00293218
0.0219526
0.0014478
9.79131e-05
2.041e-05
1.19282e-05
7.95862e-06
7.11442e-06
7.19372e-06
7.6996e-06
8.36919e-06
8.77492e-06
9.80087e-06
1.1263e-05
1.64349e-05
2.01246e-05
2.25107e-05
2.15186e-05
1.72051e-05
1.55742e-05
1.39674e-05
1.51747e-05
3.03803e-05
5.2955e-05
2.11297e-05
3.75806e-06
2.61202e-06
3.24303e-06
3.50897e-06
3.65487e-06
3.86946e-06
5.54218e-06
6.21256e-06
4.44768e-06
1.50961e-05
0.00412414
0.00418961
0.00494242
0.00492769
0.00511531
0.00496876
0.00626388
0.0322507
0.00638462
0.000376161
3.57777e-05
1.56108e-05
9.01445e-06
7.85393e-06
7.22238e-06
7.948e-06
8.26126e-06
8.83284e-06
9.66951e-06
1.10211e-05
1.4242e-05
2.12039e-05
2.51083e-05
2.90767e-05
2.95872e-05
2.76951e-05
2.70907e-05
1.99285e-05
1.69048e-05
2.88231e-05
5.23948e-05
3.09885e-05
4.40877e-06
3.07704e-06
3.56012e-06
3.83956e-06
3.85503e-06
4.02205e-06
5.76401e-06
6.34806e-06
4.32171e-06
1.51599e-05
0.00523113
0.00542915
0.00675482
0.00721964
0.00768258
0.00778809
0.00756676
0.00601048
0.0263917
0.00170835
8.96107e-05
2.18124e-05
1.21316e-05
8.37458e-06
7.76215e-06
7.87874e-06
8.29772e-06
8.81052e-06
9.51055e-06
1.09348e-05
1.33781e-05
1.85178e-05
2.32344e-05
3.05937e-05
3.2422e-05
3.41416e-05
3.86371e-05
4.06481e-05
3.78321e-05
2.18389e-05
2.89267e-05
4.84281e-05
3.9516e-05
7.68263e-06
3.44014e-06
4.07099e-06
3.96025e-06
4.0268e-06
4.18718e-06
5.96155e-06
6.44879e-06
4.12721e-06
1.52683e-05
0.00630343
0.00668907
0.00848321
0.0100306
0.0111024
0.0114195
0.0121473
0.012177
0.0337352
0.00802091
0.000330626
3.40391e-05
1.74934e-05
9.55317e-06
8.32118e-06
7.91144e-06
8.41195e-06
8.87526e-06
9.56594e-06
1.1083e-05
1.30042e-05
1.5807e-05
2.15295e-05
2.57758e-05
3.18389e-05
3.47687e-05
4.1043e-05
4.64574e-05
5.16974e-05
5.07909e-05
3.20873e-05
2.91468e-05
3.91013e-05
4.5632e-05
1.36246e-05
3.94183e-06
4.45312e-06
3.96352e-06
4.18031e-06
4.3684e-06
6.12509e-06
6.51445e-06
4.03598e-06
1.53377e-05
0.00761437
0.00755133
0.00999721
0.0128785
0.0151849
0.0161753
0.0172662
0.0162761
0.0135635
0.0301462
0.00149087
7.06275e-05
2.39571e-05
1.27133e-05
9.28633e-06
8.41088e-06
8.58038e-06
9.12832e-06
9.64313e-06
1.07935e-05
1.26385e-05
1.49391e-05
1.75417e-05
2.40312e-05
2.70498e-05
3.17852e-05
3.6819e-05
4.36821e-05
5.28256e-05
5.92024e-05
6.39948e-05
4.15004e-05
3.07271e-05
3.58182e-05
4.57572e-05
2.09527e-05
4.64042e-06
4.43162e-06
3.86847e-06
4.29459e-06
4.55279e-06
6.27164e-06
6.57912e-06
3.91863e-06
1.55345e-05
0.0102023
0.00804598
0.0107759
0.0146992
0.0196038
0.0216946
0.0236613
0.0254383
0.0226738
0.0359618
0.00707008
0.000218221
3.47052e-05
2.02741e-05
1.06111e-05
9.2614e-06
8.89672e-06
9.53844e-06
9.81811e-06
1.10579e-05
1.25986e-05
1.47801e-05
1.62688e-05
1.90877e-05
2.53589e-05
2.78887e-05
3.32779e-05
4.07322e-05
4.60858e-05
5.95493e-05
6.89722e-05
7.1352e-05
5.5188e-05
3.3594e-05
3.55176e-05
4.49879e-05
2.69368e-05
5.35394e-06
4.35768e-06
3.79866e-06
4.30951e-06
4.75212e-06
6.38179e-06
6.61733e-06
3.89794e-06
1.57052e-05
0.0193129
0.0085773
0.0107649
0.0153681
0.0231195
0.0273839
0.0309499
0.0325076
0.0326065
0.022024
0.0311919
0.000865182
6.09572e-05
2.83064e-05
1.42518e-05
1.0431e-05
9.37642e-06
1.01102e-05
1.05124e-05
1.12049e-05
1.27059e-05
1.43607e-05
1.58585e-05
1.71658e-05
2.12448e-05
2.62402e-05
3.01787e-05
3.52203e-05
4.3821e-05
4.96208e-05
6.63658e-05
7.49184e-05
7.45626e-05
6.98344e-05
3.98946e-05
3.48745e-05
4.34176e-05
3.18759e-05
6.29498e-06
4.26262e-06
3.61825e-06
4.34973e-06
4.89803e-06
6.49581e-06
6.64284e-06
3.90102e-06
1.59915e-05
0.0429619
0.011095
0.00840493
0.0150324
0.0240629
0.0327527
0.0376238
0.0424159
0.0391004
0.0294017
0.0424379
0.00361703
0.000141254
4.55597e-05
2.52215e-05
1.19492e-05
1.04295e-05
9.9997e-06
1.13488e-05
1.12608e-05
1.27574e-05
1.44022e-05
1.57397e-05
1.66695e-05
1.78237e-05
2.31005e-05
2.66712e-05
3.28711e-05
3.66063e-05
4.72062e-05
5.86087e-05
6.51334e-05
7.20382e-05
7.97098e-05
8.03592e-05
5.55199e-05
3.69675e-05
4.43063e-05
3.53531e-05
6.79758e-06
4.19706e-06
3.36798e-06
4.30222e-06
5.05002e-06
6.58321e-06
6.67589e-06
3.90224e-06
1.6254e-05
0.0900035
0.024164
0.00855239
0.00878
0.022239
0.0357561
0.0431228
0.0501779
0.0497704
0.0593622
0.030605
0.0152657
0.000406305
8.64986e-05
3.99713e-05
1.87759e-05
1.1356e-05
1.02924e-05
1.10106e-05
1.18607e-05
1.26703e-05
1.43269e-05
1.54947e-05
1.66706e-05
1.68799e-05
1.84549e-05
2.52961e-05
2.75836e-05
3.45685e-05
3.76108e-05
5.14905e-05
6.15965e-05
6.21507e-05
6.5939e-05
8.52991e-05
9.27965e-05
7.78128e-05
4.002e-05
4.37159e-05
3.80622e-05
7.95396e-06
4.0896e-06
3.13953e-06
4.3007e-06
5.1852e-06
6.67867e-06
6.70871e-06
3.91086e-06
1.67409e-05
0.133616
0.0571494
0.0173794
0.00594204
0.0126479
0.031323
0.0459964
0.0549889
0.0580924
0.0591325
0.0333977
0.0401234
0.00121778
0.000179665
7.41539e-05
3.84222e-05
1.61256e-05
1.07618e-05
1.06027e-05
1.26418e-05
1.2944e-05
1.48675e-05
1.57595e-05
1.65369e-05
1.62346e-05
1.72866e-05
1.9732e-05
2.62456e-05
2.85341e-05
3.52519e-05
4.00348e-05
5.33253e-05
5.89712e-05
5.71643e-05
6.3273e-05
8.48529e-05
0.000104862
9.36491e-05
5.13101e-05
4.4521e-05
4.01885e-05
8.53569e-06
3.89621e-06
3.14015e-06
4.2661e-06
5.30473e-06
6.80101e-06
6.75596e-06
3.92522e-06
1.72158e-05
0.131255
0.107823
0.0428283
0.00737258
0.00488723
0.0190547
0.042698
0.0561737
0.0622055
0.0664865
0.0517313
0.0341396
0.00419183
0.000422561
0.000161887
7.8142e-05
3.40727e-05
1.39669e-05
1.07001e-05
1.10988e-05
1.39233e-05
1.48617e-05
1.58475e-05
1.67753e-05
1.61713e-05
1.6506e-05
1.74632e-05
2.21216e-05
2.7118e-05
2.89828e-05
3.67957e-05
4.59599e-05
5.14217e-05
5.21602e-05
5.4999e-05
6.33884e-05
8.24097e-05
0.000110939
0.000105366
6.18008e-05
4.4702e-05
4.24114e-05
9.58416e-06
3.78863e-06
3.12386e-06
4.299e-06
5.45068e-06
6.95035e-06
6.81152e-06
3.87424e-06
1.76476e-05
0.103928
0.117393
0.0869676
0.0167273
0.00391463
0.00640041
0.0291652
0.0516402
0.0624158
0.0683875
0.0947703
0.0350208
0.0413788
0.00104325
0.000361842
0.000166268
8.30262e-05
2.83007e-05
1.16678e-05
1.07149e-05
1.22662e-05
1.56162e-05
1.58728e-05
1.65681e-05
1.61429e-05
1.58833e-05
1.62757e-05
1.83921e-05
2.38343e-05
2.7101e-05
3.12206e-05
3.78935e-05
4.78333e-05
4.72131e-05
4.57328e-05
5.58743e-05
6.85443e-05
8.23442e-05
0.000108923
0.000110386
7.4073e-05
4.77544e-05
4.46975e-05
1.01388e-05
3.69165e-06
3.31134e-06
4.44183e-06
5.59322e-06
7.14751e-06
6.89767e-06
3.92459e-06
1.82379e-05
0.0777604
0.105663
0.0976481
0.0397094
0.00659452
0.0026519
0.0116996
0.039687
0.0594607
0.0678936
0.0878076
0.0457874
0.0397862
0.00233027
0.000829956
0.000378088
0.000150418
6.78478e-05
2.05594e-05
1.10923e-05
1.10311e-05
1.41345e-05
1.69022e-05
1.69214e-05
1.67291e-05
1.54313e-05
1.53659e-05
1.62697e-05
2.02397e-05
2.50375e-05
2.73679e-05
3.43836e-05
3.91893e-05
4.4737e-05
4.18016e-05
4.30044e-05
5.7279e-05
7.34157e-05
8.04179e-05
9.82738e-05
0.000106163
8.56164e-05
5.46848e-05
4.67494e-05
1.10472e-05
3.56401e-06
3.79885e-06
4.71236e-06
5.79645e-06
7.39572e-06
7.0138e-06
3.9328e-06
1.89477e-05
0.0699659
0.0798773
0.0958792
0.0583941
0.0155269
0.00247229
0.0029353
0.0212911
0.0493462
0.064394
0.089381
0.0639004
0.0415941
0.00302666
0.00184114
0.000885671
0.000360838
0.000163756
6.07048e-05
1.33298e-05
1.08287e-05
1.14985e-05
1.82938e-05
1.88851e-05
1.69607e-05
1.56596e-05
1.39267e-05
1.53572e-05
1.68912e-05
2.22552e-05
2.57141e-05
2.83724e-05
3.60961e-05
3.77154e-05
3.86033e-05
3.80144e-05
4.29433e-05
5.68008e-05
7.21572e-05
7.28508e-05
8.23244e-05
0.000100128
8.55737e-05
6.37884e-05
5.06503e-05
1.23575e-05
3.7076e-06
4.62546e-06
4.95118e-06
5.99752e-06
7.7083e-06
7.17154e-06
3.91315e-06
2.00924e-05
0.0681838
0.0702403
0.0812833
0.0584887
0.0296016
0.00463085
0.0014378
0.00565207
0.0325414
0.0567735
0.0898467
0.132434
0.0443139
0.00709849
0.00284107
0.00191609
0.000987981
0.000438952
0.000192519
2.53145e-05
1.1483e-05
1.11982e-05
1.29618e-05
2.03996e-05
2.01235e-05
1.64841e-05
1.34507e-05
1.37381e-05
1.55419e-05
1.8104e-05
2.36611e-05
2.61331e-05
3.00051e-05
3.51691e-05
3.50584e-05
3.31796e-05
3.69044e-05
4.64828e-05
5.49139e-05
6.45262e-05
6.03206e-05
6.60586e-05
9.06898e-05
8.34883e-05
7.1302e-05
5.80351e-05
1.3031e-05
3.89996e-06
6.31504e-06
5.30297e-06
6.26267e-06
8.09367e-06
7.38255e-06
3.98236e-06
2.09567e-05
0.0636494
0.0681711
0.0701894
0.0631383
0.0311968
0.00901466
0.00143679
0.00149588
0.0133828
0.0424445
0.078801
0.175875
0.0573275
0.0282242
0.00426936
0.00420134
0.00274197
0.00140198
0.000586866
6.74805e-05
1.57307e-05
1.13311e-05
1.15638e-05
1.74686e-05
2.1859e-05
1.88237e-05
1.36338e-05
1.26957e-05
1.40616e-05
1.61573e-05
1.97814e-05
2.45256e-05
2.64399e-05
3.15228e-05
3.23305e-05
3.11341e-05
2.96648e-05
3.76336e-05
4.83299e-05
4.94363e-05
4.90703e-05
4.79261e-05
5.27151e-05
7.85183e-05
8.0072e-05
7.0873e-05
5.84264e-05
1.44543e-05
4.32149e-06
1.07466e-05
5.68875e-06
6.58388e-06
8.57247e-06
7.64839e-06
3.95732e-06
2.27224e-05
0.0566759
0.0647342
0.0687408
0.0616968
0.0336349
0.0122646
0.00253989
0.000841356
0.00337158
0.0252425
0.0629644
0.15337
0.0973542
0.0370883
0.00571321
0.00826372
0.00859768
0.00494062
0.00200801
0.000219054
3.52661e-05
1.21419e-05
1.08457e-05
1.27663e-05
2.10619e-05
2.16317e-05
1.50084e-05
1.2645e-05
1.22294e-05
1.48101e-05
1.69147e-05
2.12065e-05
2.47809e-05
2.76444e-05
2.96718e-05
2.9465e-05
2.70713e-05
2.89645e-05
3.78611e-05
4.44176e-05
3.91799e-05
3.61178e-05
3.66021e-05
4.18877e-05
6.55749e-05
7.37238e-05
6.88188e-05
5.73075e-05
1.5069e-05
5.04896e-06
2.14521e-05
6.13424e-06
6.97143e-06
9.15838e-06
7.97064e-06
3.98919e-06
2.45837e-05
0.0504362
0.0637105
0.0640644
0.0623719
0.0328418
0.0122433
0.00391175
0.000827833
0.0011861
0.0102199
0.0457612
0.154199
0.129301
0.0435831
0.0172785
0.0222202
0.0233893
0.0168343
0.00705664
0.000826649
9.06382e-05
1.93619e-05
1.1306e-05
1.1481e-05
1.7223e-05
2.22123e-05
1.80727e-05
1.33406e-05
1.16957e-05
1.24244e-05
1.53848e-05
1.80209e-05
2.23806e-05
2.4639e-05
2.81977e-05
2.67451e-05
2.60605e-05
2.44194e-05
3.15591e-05
3.63452e-05
3.57748e-05
3.05626e-05
2.78176e-05
2.76967e-05
3.30993e-05
5.27306e-05
6.42297e-05
6.44673e-05
5.4791e-05
1.65467e-05
6.86628e-06
4.06518e-05
6.78907e-06
7.47648e-06
9.87754e-06
8.35491e-06
4.03964e-06
2.7163e-05
0.0465451
0.0588849
0.0640603
0.0613485
0.0375903
0.0125494
0.00436828
0.00112306
0.000728291
0.00394363
0.0320781
0.140209
0.21198
0.0564837
0.0305722
0.0176368
0.073802
0.056931
0.0239867
0.00306323
0.000273635
4.46363e-05
1.32185e-05
1.14487e-05
1.37844e-05
2.16705e-05
2.09978e-05
1.48259e-05
1.16872e-05
1.14339e-05
1.34897e-05
1.57783e-05
1.94225e-05
2.28085e-05
2.45997e-05
2.55673e-05
2.37677e-05
2.26041e-05
2.39017e-05
3.28331e-05
3.24085e-05
2.85652e-05
2.45112e-05
2.14978e-05
2.19435e-05
2.64179e-05
4.17378e-05
5.41883e-05
5.8978e-05
5.12918e-05
1.59338e-05
1.02564e-05
4.95283e-05
7.5728e-06
8.05633e-06
1.07608e-05
8.79118e-06
4.13898e-06
3.00131e-05
0.0432645
0.0537235
0.0592511
0.0565705
0.0359696
0.012653
0.00482162
0.00171071
0.000672918
0.00195804
0.0165163
0.119247
0.410067
0.0834171
0.0337692
0.026984
0.0566994
0.172375
0.078775
0.0111699
0.00103894
0.000117194
2.3072e-05
1.18103e-05
1.22551e-05
1.94602e-05
2.3081e-05
1.73288e-05
1.23876e-05
1.1112e-05
1.14046e-05
1.43095e-05
1.65936e-05
2.01788e-05
2.21896e-05
2.38007e-05
2.24551e-05
2.15297e-05
2.11118e-05
2.5803e-05
2.99521e-05
2.65968e-05
2.24474e-05
1.90979e-05
1.77739e-05
1.81445e-05
2.17301e-05
3.30515e-05
4.48925e-05
5.33572e-05
4.69251e-05
1.57119e-05
1.58012e-05
3.87052e-05
8.3601e-06
8.80161e-06
1.18271e-05
9.28957e-06
4.32083e-06
3.32636e-05
0.0411871
0.0506086
0.0540793
0.0564307
0.0379145
0.013504
0.00527223
0.00225896
0.000654532
0.00121627
0.0100196
0.0835408
0.390947
0.134089
0.0407273
0.0342167
0.0441815
0.155952
0.212243
0.0443361
0.00413468
0.000400962
5.83963e-05
1.41174e-05
1.19636e-05
1.58738e-05
2.47794e-05
2.14013e-05
1.41739e-05
1.11693e-05
1.0854e-05
1.16818e-05
1.5075e-05
1.75521e-05
2.08955e-05
2.16601e-05
2.08207e-05
2.07985e-05
1.9804e-05
2.02977e-05
2.74536e-05
2.60104e-05
2.18139e-05
1.85349e-05
1.62528e-05
1.53376e-05
1.6056e-05
1.89773e-05
2.64102e-05
3.64856e-05
4.72849e-05
4.25642e-05
1.53332e-05
2.18822e-05
1.14679e-05
8.95211e-06
9.6713e-06
1.3123e-05
9.84114e-06
4.41677e-06
3.65618e-05
0.0391788
0.0477563
0.0505223
0.0534273
0.0354738
0.0130833
0.00575081
0.00268605
0.000753454
0.000841767
0.00614494
0.0589939
0.412904
0.215636
0.0562245
0.0352508
0.0413953
0.105033
0.273173
0.183058
0.0166546
0.0015391
0.000176539
2.59835e-05
1.2104e-05
1.31446e-05
2.4219e-05
2.59106e-05
1.77167e-05
1.20309e-05
1.05998e-05
1.08288e-05
1.21794e-05
1.5545e-05
1.83887e-05
2.06176e-05
1.99732e-05
1.96894e-05
1.92213e-05
1.86578e-05
2.00874e-05
2.59742e-05
2.20426e-05
1.83342e-05
1.59472e-05
1.42627e-05
1.42598e-05
1.52898e-05
1.74794e-05
2.24303e-05
2.96745e-05
4.18012e-05
3.77476e-05
1.58788e-05
2.57025e-05
1.00032e-05
9.87027e-06
1.07774e-05
1.46786e-05
1.04532e-05
4.58847e-06
3.97995e-05
0.0371131
0.0451662
0.047475
0.0466953
0.0341576
0.0125806
0.00626916
0.0032459
0.000931657
0.000624693
0.00425626
0.0375609
0.37439
0.437348
0.0882095
0.040863
0.0372007
0.0722963
0.0976173
0.404912
0.0751501
0.00623564
0.000642942
7.34596e-05
1.44432e-05
1.23111e-05
1.90986e-05
2.90543e-05
2.29766e-05
1.44769e-05
1.09639e-05
1.03224e-05
1.08441e-05
1.31264e-05
1.6335e-05
1.89485e-05
1.91077e-05
1.85347e-05
1.86426e-05
1.80942e-05
1.7423e-05
2.22597e-05
2.31904e-05
1.82161e-05
1.51073e-05
1.39064e-05
1.32116e-05
1.40362e-05
1.52301e-05
1.72209e-05
2.01049e-05
2.54085e-05
3.7247e-05
3.40879e-05
1.57524e-05
2.69916e-05
1.14151e-05
1.09576e-05
1.21139e-05
1.65578e-05
1.11105e-05
4.85238e-06
4.28416e-05
0.0345787
0.0426964
0.0434689
0.0419147
0.0238326
0.0117165
0.00663556
0.00390066
0.001165
0.000531543
0.00213268
0.0281871
0.240681
1.2961
0.177185
0.0572777
0.038625
0.0460883
0.0735741
0.279053
0.344679
0.0263386
0.00246727
0.000259582
2.68048e-05
1.22313e-05
1.36878e-05
2.99936e-05
2.98328e-05
1.84464e-05
1.29237e-05
1.01353e-05
1.02803e-05
1.10529e-05
1.39592e-05
1.7098e-05
1.89404e-05
1.76259e-05
1.79607e-05
1.75905e-05
1.66894e-05
1.70495e-05
2.36232e-05
2.03832e-05
1.56183e-05
1.37671e-05
1.27831e-05
1.26286e-05
1.42222e-05
1.57343e-05
1.72241e-05
1.89361e-05
2.28851e-05
3.40022e-05
2.99496e-05
1.57376e-05
2.81696e-05
1.27784e-05
1.17749e-05
1.38422e-05
1.88107e-05
1.18192e-05
5.09769e-06
4.54196e-05
0.0338117
0.0385239
0.0424308
0.0363494
0.0149439
0.0113893
0.00717302
0.00468214
0.00163631
0.000525218
0.0010226
0.0147796
0.178564
1.39594
0.277764
0.103476
0.0496818
0.0375472
0.0447486
0.0780158
0.788861
0.122588
0.0104558
0.000990381
7.91625e-05
1.38684e-05
1.24419e-05
1.95046e-05
3.33133e-05
2.58214e-05
1.62547e-05
1.07679e-05
9.81874e-06
1.03186e-05
1.12329e-05
1.51888e-05
1.73916e-05
1.71155e-05
1.72297e-05
1.71229e-05
1.65051e-05
1.55684e-05
1.72741e-05
2.11063e-05
1.75568e-05
1.36975e-05
1.26112e-05
1.20639e-05
1.24049e-05
1.44369e-05
1.63329e-05
1.72042e-05
1.85342e-05
2.15644e-05
3.18782e-05
2.68636e-05
1.63925e-05
2.80235e-05
1.34027e-05
1.26045e-05
1.60948e-05
2.15379e-05
1.25697e-05
5.37843e-06
4.75294e-05
0.0321338
0.0390501
0.0368627
0.0304571
0.0141055
0.0088554
0.00827171
0.00562922
0.00234696
0.000559427
0.000565845
0.00631746
0.0892158
1.17853
2.1744
0.226161
0.0812318
0.042528
0.0343167
0.0498154
0.232192
0.577977
0.0471075
0.00386389
0.000278659
2.06385e-05
1.2557e-05
1.39626e-05
3.07823e-05
3.34377e-05
2.36354e-05
1.28388e-05
9.92248e-06
9.68814e-06
1.0302e-05
1.1729e-05
1.59151e-05
1.69598e-05
1.67162e-05
1.67882e-05
1.66301e-05
1.54239e-05
1.50609e-05
1.86244e-05
1.92106e-05
1.53678e-05
1.2623e-05
1.1837e-05
1.16948e-05
1.25093e-05
1.43459e-05
1.62814e-05
1.72298e-05
1.84919e-05
2.1314e-05
3.09858e-05
2.39121e-05
1.74348e-05
2.83002e-05
1.42755e-05
1.31175e-05
1.87976e-05
2.48346e-05
1.34039e-05
5.63197e-06
4.92719e-05
0.0303697
0.034715
0.0344795
0.0237227
0.0120707
0.00921356
0.00894554
0.00678815
0.00329431
0.000715961
0.000464566
0.00249205
0.0465468
0.473182
5.60201
2.24371
0.2289
0.0691776
0.0368287
0.0350536
0.0547968
1.33766
0.231139
0.0165748
0.00101096
4.53296e-05
1.33855e-05
1.28469e-05
1.81307e-05
3.59195e-05
3.45611e-05
1.74654e-05
1.05588e-05
9.57387e-06
9.59724e-06
1.03112e-05
1.26935e-05
1.61809e-05
1.57715e-05
1.65853e-05
1.6471e-05
1.52656e-05
1.42466e-05
1.50064e-05
1.89503e-05
1.73532e-05
1.3427e-05
1.1925e-05
1.12987e-05
1.14412e-05
1.2913e-05
1.41725e-05
1.59891e-05
1.72235e-05
1.84304e-05
2.11055e-05
3.0475e-05
2.14077e-05
1.70225e-05
2.78303e-05
1.41544e-05
1.37251e-05
2.19871e-05
2.88368e-05
1.43616e-05
5.88625e-06
5.06461e-05
0.0279735
0.0308947
0.028164
0.0183043
0.0123957
0.0102676
0.0104648
0.00861795
0.00453104
0.00100792
0.000426752
0.00119038
0.0171267
0.272261
2.18339
6.50684
3.71175
0.15824
0.0567162
0.0330678
0.0377952
0.249435
0.960506
0.0779612
0.0037047
0.000125251
1.54382e-05
1.29552e-05
1.37831e-05
2.75384e-05
3.80207e-05
2.97513e-05
1.25755e-05
9.69985e-06
9.37006e-06
9.53934e-06
1.03495e-05
1.38722e-05
1.53983e-05
1.55497e-05
1.65534e-05
1.54315e-05
1.41749e-05
1.3552e-05
1.52819e-05
1.77439e-05
1.56591e-05
1.24492e-05
1.12896e-05
1.09468e-05
1.13441e-05
1.30989e-05
1.42095e-05
1.59396e-05
1.73167e-05
1.86895e-05
2.11879e-05
3.05179e-05
1.98609e-05
1.78399e-05
2.83392e-05
1.25436e-05
1.45455e-05
2.58375e-05
3.36593e-05
1.54903e-05
6.08999e-06
5.19367e-05
0.0259991
0.0269901
0.0214668
0.0155846
0.0126428
0.0121372
0.013061
0.0113999
0.00630841
0.00148645
0.000421556
0.000596823
0.00721868
0.106222
1.09738
6.83475
10.1931
2.37281
0.109525
0.0414425
0.0329399
0.084496
1.21391
0.343425
0.0134809
0.000350599
2.05443e-05
1.34855e-05
1.29728e-05
1.64426e-05
3.79989e-05
4.09184e-05
2.027e-05
1.01722e-05
9.34599e-06
9.15952e-06
9.42431e-06
1.06702e-05
1.44079e-05
1.45599e-05
1.5829e-05
1.64018e-05
1.41236e-05
1.32998e-05
1.30025e-05
1.6437e-05
1.67923e-05
1.39941e-05
1.15179e-05
1.08747e-05
1.07225e-05
1.13155e-05
1.34076e-05
1.44944e-05
1.59697e-05
1.7917e-05
1.9141e-05
2.17545e-05
3.04853e-05
1.90818e-05
1.70519e-05
2.64658e-05
1.20795e-05
1.52396e-05
3.05269e-05
3.95109e-05
1.67782e-05
6.28135e-06
5.32452e-05
0.0256792
0.0247542
0.017747
0.0142386
0.0141243
0.0151083
0.0172361
0.0152144
0.00879349
0.00216181
0.000494698
0.000419173
0.00316165
0.0435267
0.553269
3.17352
9.16625
10.0501
1.01825
0.0657445
0.0331849
0.0381852
0.141525
0.78337
0.0477784
0.000964671
3.21993e-05
1.49595e-05
1.29631e-05
1.36366e-05
2.18864e-05
4.28916e-05
3.63303e-05
1.30814e-05
9.32978e-06
8.99983e-06
9.07643e-06
9.36954e-06
1.17469e-05
1.43214e-05
1.41423e-05
1.64201e-05
1.49842e-05
1.33259e-05
1.26387e-05
1.28348e-05
1.70032e-05
1.56584e-05
1.25592e-05
1.10429e-05
1.05363e-05
1.06261e-05
1.13768e-05
1.40776e-05
1.52269e-05
1.64463e-05
1.8818e-05
2.03443e-05
2.30303e-05
3.05091e-05
1.75063e-05
1.7018e-05
2.43887e-05
1.21668e-05
1.63551e-05
3.63113e-05
4.6589e-05
1.82558e-05
6.42734e-06
5.46342e-05
0.0236765
0.0212608
0.0158289
0.0145973
0.016227
0.0199883
0.0231294
0.0203118
0.0121262
0.0030963
0.00064673
0.000328156
0.00146971
0.0197552
0.213812
2.13814
8.00525
17.8648
5.12923
0.353064
0.0407527
0.0316449
0.0808797
0.547035
0.14182
0.00257437
5.65734e-05
1.80864e-05
1.34416e-05
1.28251e-05
1.51443e-05
3.57358e-05
4.52878e-05
2.14588e-05
1.05647e-05
8.98185e-06
8.76659e-06
8.86672e-06
9.33846e-06
1.25822e-05
1.29674e-05
1.42646e-05
1.5722e-05
1.39261e-05
1.25977e-05
1.20315e-05
1.27575e-05
1.592e-05
1.45733e-05
1.17538e-05
1.05561e-05
1.03446e-05
1.06053e-05
1.17833e-05