/*--------------------------------*- C++ -*----------------------------------*\
| =========                 |                                                 |
| \\      /  F ield         | OpenFOAM: The Open Source CFD Toolbox           |
|  \\    /   O peration     | Version:  2212                                  |
|   \\  /    A nd           | Website:  www.openfoam.com                      |
|    \\/     M anipulation  |                                                 |
\*---------------------------------------------------------------------------*/
FoamFile
{
    version     2.0;
    format      ascii;
    arch        "LSB;label=32;scalar=64";
    class       volVectorField;
    location    "100";
    object      U;
}
// * * * * * * * * * * * * * * * * * * * * * * * * * * * * * * * * * * * * * //

dimensions      [0 1 -1 0 0 0 0];

internalField   nonuniform List<vector> 
165000
(
(126.987 -34.1158 0)
(118.728 -48.7422 0)
(135.238 -34.2716 0)
(117.904 -90.1912 0)
(125.213 -51.3444 0)
(138.358 -34.6318 0)
(142.446 -128.889 0)
(127.341 -96.5125 0)
(127.547 -52.7875 0)
(145.429 -35.0503 0)
(145.847 -165.599 0)
(151.955 -135.858 0)
(130.742 -99.0242 0)
(133.444 -54.7758 0)
(149.069 -35.5325 0)
(133.81 -195.237 0)
(154.547 -173.472 0)
(155.114 -139.042 0)
(138.71 -102.634 0)
(136.31 -56.3204 0)
(156.227 -36.0814 0)
(105.99 -213.592 0)
(140.096 -202.398 0)
(157.567 -176.495 0)
(162.93 -144.048 0)
(142.82 -105.19 0)
(142.423 -58.2532 0)
(160.202 -36.5824 0)
(72.6183 -218.578 0)
(109.082 -218.74 0)
(142.468 -204.548 0)
(164.388 -181.12 0)
(166.687 -147.381 0)
(150.887 -108.705 0)
(145.675 -59.7584 0)
(167.441 -37.1361 0)
(39.0945 -213.719 0)
(71.965 -219.297 0)
(109.45 -220.285 0)
(147.147 -206.95 0)
(167.467 -183.666 0)
(174.238 -151.733 0)
(155.348 -111.397 0)
(151.975 -61.5239 0)
(171.706 -37.5437 0)
(14.0533 -219.774 0)
(38.4248 -218.033 0)
(71.9271 -219.997 0)
(111.421 -221 0)
(149.34 -207.949 0)
(173.484 -187.133 0)
(178.123 -154.464 0)
(163.38 -114.954 0)
(155.611 -62.882 0)
(179.011 -37.9616 0)
(-4.60825 -206.522 0)
(14.4868 -213.268 0)
(38.9854 -218.135 0)
(72.5341 -220.286 0)
(111.707 -222.017 0)
(153.432 -208.611 0)
(176.283 -188.955 0)
(185.342 -157.696 0)
(168.084 -117.713 0)
(162.106 -64.4004 0)
(183.494 -38.1391 0)
(-10.4075 -163.93 0)
(-9.54284 -214.192 0)
(11.311 -212.241 0)
(36.667 -215.947 0)
(70.8145 -219.291 0)
(113 -222.111 0)
(155.343 -209.001 0)
(181.575 -191.283 0)
(189.102 -159.331 0)
(175.921 -121.117 0)
(166.099 -65.5269 0)
(190.84 -38.3101 0)
(-6.46788 -116.345 0)
(-22.3539 -203.969 0)
(-9.86047 -210.439 0)
(11.1022 -210.585 0)
(36.3839 -214.478 0)
(70.7406 -218.285 0)
(113.57 -222.346 0)
(159.023 -209.229 0)
(184.132 -192.503 0)
(195.984 -161.254 0)
(180.727 -123.64 0)
(172.799 -66.7749 0)
(195.472 -38.1068 0)
(0.910233 -68.4996 0)
(-23.3873 -183.555 0)
(-23.4563 -204.691 0)
(-10.8622 -204.508 0)
(9.47345 -206.92 0)
(34.418 -212.853 0)
(69.4382 -217.679 0)
(114.237 -222.344 0)
(160.753 -210.484 0)
(189.124 -194.359 0)
(199.521 -161.908 0)
(188.281 -126.51 0)
(177.102 -67.6179 0)
(202.782 -37.946 0)
(15.8576 -104.836 0)
(-8.5569 -153.994 0)
(-23.8369 -194.99 0)
(-25.2181 -199.926 0)
(-11.6325 -201.023 0)
(8.17217 -205.226 0)
(33.3942 -212.044 0)
(68.9302 -217.397 0)
(114.976 -222.251 0)
(163.923 -210.811 0)
(191.547 -195.405 0)
(206.138 -162.941 0)
(193.106 -128.488 0)
(183.971 -68.5871 0)
(207.477 -37.2679 0)
(71.117 -126.554 0)
(19.7039 -162.799 0)
(-13.1102 -179.354 0)
(-25.7231 -191.522 0)
(-27.8324 -192.411 0)
(-15.1168 -196.589 0)
(6.35306 -202.388 0)
(31.3945 -209.016 0)
(66.9131 -215.818 0)
(115.069 -222.052 0)
(165.325 -212.323 0)
(196.438 -196.988 0)
(209.489 -163.254 0)
(200.379 -130.634 0)
(188.519 -69.1382 0)
(214.685 -36.7093 0)
(118.701 -90.7282 0)
(55.8421 -138.952 0)
(14.7074 -174.332 0)
(-15.5621 -178.974 0)
(-29.3034 -183.73 0)
(-29.6153 -185.772 0)
(-16.4525 -192.018 0)
(3.95845 -200.057 0)
(29.5529 -205.492 0)
(66.0976 -214.753 0)
(115.653 -221.495 0)
(168.267 -212.776 0)
(198.878 -197.76 0)
(215.878 -163.826 0)
(205.177 -131.996 0)
(195.542 -69.8449 0)
(219.363 -35.5632 0)
(136.037 -14.2153 0)
(85.5093 -87.5393 0)
(44.9565 -135.33 0)
(5.99222 -167.201 0)
(-19.7296 -171.353 0)
(-32.3798 -174.396 0)
(-33.3086 -180.235 0)
(-19.8973 -184.365 0)
(0.773279 -196.778 0)
(27.115 -204.096 0)
(63.8101 -214.869 0)
(114.679 -221.258 0)
(169.523 -214.718 0)
(203.737 -199.105 0)
(219.098 -164.108 0)
(212.243 -133.447 0)
(200.298 -70.1772 0)
(226.4 -34.5799 0)
(118.376 58.9703 0)
(92.1774 -29.1477 0)
(73.8294 -90.2245 0)
(30.0077 -132.636 0)
(-3.24464 -156.543 0)
(-23.2694 -160.629 0)
(-36.4906 -163.646 0)
(-36.9312 -173.624 0)
(-22.4624 -180.513 0)
(-1.15018 -191.807 0)
(25.2109 -198.841 0)
(62.3213 -211.105 0)
(114.593 -219.576 0)
(171.763 -214.62 0)
(206.222 -199.411 0)
(225.276 -164.294 0)
(216.982 -134.226 0)
(207.444 -70.6819 0)
(230.995 -33.057 0)
(84.8507 79.6042 0)
(87.6086 39.8773 0)
(81.1008 -48.4025 0)
(54.1328 -84.8714 0)
(16.3606 -126.426 0)
(-10.0471 -145.323 0)
(-28.7957 -145.957 0)
(-40.5691 -156.838 0)
(-41.0173 -164.95 0)
(-27.1871 -177.322 0)
(-5.09584 -188.529 0)
(22.0572 -197.361 0)
(59.6278 -210.173 0)
(113.846 -218.016 0)
(172.846 -215.601 0)
(211.035 -200.166 0)
(228.415 -164.313 0)
(223.862 -134.935 0)
(212.375 -70.9298 0)
(237.81 -31.6826 0)
(67.8538 89.9943 0)
(71.9441 70.0832 0)
(75.3294 30.1357 0)
(45.9525 -46.2909 0)
(41.9438 -87.6118 0)
(8.75041 -114.578 0)
(-18.101 -127.224 0)
(-33.7026 -140.795 0)
(-45.9019 -146.241 0)
(-45.3815 -158.19 0)
(-30.1398 -171.427 0)
(-6.97594 -184.15 0)
(19.032 -196.715 0)
(58.0182 -207.156 0)
(112.938 -215.899 0)
(174.249 -215.144 0)
(213.407 -200.447 0)
(234.416 -164.151 0)
(228.505 -135.075 0)
(219.592 -71.3429 0)
(242.279 -29.9184 0)
(64.197 93.6053 0)
(61.3707 85.8583 0)
(65.5498 66.8946 0)
(41.1511 20.2466 0)
(30.8767 -36.925 0)
(18.0018 -68.1725 0)
(-5.60171 -94.1271 0)
(-26.345 -118.207 0)
(-40.1152 -129.494 0)
(-49.9797 -139.127 0)
(-51.0535 -151.75 0)
(-35.8165 -167.134 0)
(-11.2004 -181.205 0)
(16.5593 -192.651 0)
(55.5387 -205.01 0)
(111.76 -214.994 0)
(175.072 -215.142 0)
(218.109 -200.514 0)
(237.529 -163.704 0)
(235.174 -134.909 0)
(224.652 -71.6633 0)
(248.853 -28.2479 0)
(61.3771 96.6776 0)
(57.2188 94.1149 0)
(57.1221 85.1057 0)
(50.5546 65.0351 0)
(25.9605 17.4441 0)
(14.5452 -16.6164 0)
(4.44982 -62.3938 0)
(-14.3183 -91.839 0)
(-35.0384 -104.218 0)
(-45.6254 -119.005 0)
(-56.0256 -131.902 0)
(-55.4994 -141.72 0)
(-39.8125 -161.885 0)
(-14.7251 -179.302 0)
(12.6874 -192.314 0)
(53.6473 -201.79 0)
(110.378 -213.345 0)
(176.401 -214.539 0)
(220.43 -201.095 0)
(243.432 -163.288 0)
(239.688 -134.252 0)
(231.869 -72.0051 0)
(253.163 -26.3803 0)
(65.7367 98.1529 0)
(58.8689 98.1475 0)
(56.1168 95.7231 0)
(48.6105 84.0652 0)
(35.6514 61.1437 0)
(6.59616 31.6108 0)
(-0.680256 -20.9423 0)
(-13.9512 -70.7217 0)
(-23.2101 -81.661 0)
(-40.5336 -93.1214 0)
(-54.749 -109.132 0)
(-60.2684 -121.153 0)
(-62.6086 -136.931 0)
(-46.2701 -155.35 0)
(-18.8366 -174.453 0)
(10.7199 -192.545 0)
(52.0131 -200.371 0)
(109.109 -211.865 0)
(177.3 -214.079 0)
(225.071 -200.554 0)
(246.599 -162.377 0)
(246.092 -133.179 0)
(236.986 -72.0602 0)
(259.436 -24.5411 0)
(71.215 99.3667 0)
(62.583 100.581 0)
(57.8819 100.8 0)
(50.429 97.1346 0)
(41.6879 82.9849 0)
(22.4196 56.274 0)
(-4.67894 30.5823 0)
(-18.8259 -16.8674 0)
(-23.8604 -58.3159 0)
(-33.2059 -73.5133 0)
(-47.7594 -84.8404 0)
(-60.7718 -96.9036 0)
(-67.7838 -110.997 0)
(-67.8675 -126.45 0)
(-51.7896 -151.756 0)
(-23.6379 -171.9 0)
(5.71693 -189.885 0)
(49.5599 -198.467 0)
(107.585 -211.347 0)
(178.22 -213.801 0)
(227.48 -201.282 0)
(252.54 -161.737 0)
(250.479 -132.025 0)
(244.111 -72.0658 0)
(263.562 -22.6674 0)
(74.8356 98.8389 0)
(69.7985 103.096 0)
(62.7424 103.856 0)
(54.0969 103.809 0)
(45.7761 96.3118 0)
(32.1471 82.4789 0)
(11.9801 58.3201 0)
(-19.3169 34.3912 0)
(-38.4974 8.48353 0)
(-42.5151 -28.644 0)
(-46.4113 -61.1568 0)
(-55.5582 -76.0384 0)
(-66.5998 -85.5062 0)
(-74.2648 -97.5072 0)
(-76.8169 -118.894 0)
(-59.2824 -143.539 0)
(-28.4959 -167.809 0)
(5.27834 -187.302 0)
(48.0126 -198.127 0)
(106.113 -210.548 0)
(179.07 -213.009 0)
(231.909 -200.475 0)
(255.838 -160.599 0)
(256.633 -130.358 0)
(249.267 -71.9249 0)
(269.507 -20.7968 0)
(75.401 96.1978 0)
(76.6115 104.016 0)
(69.1119 106.396 0)
(60.0632 107.269 0)
(52.0334 104.895 0)
(39.8708 93.3046 0)
(23.5548 78.7418 0)
(2.08836 57.8147 0)
(-30.5937 43.3964 0)
(-55.7614 30.1386 0)
(-62.5228 4.72076 0)
(-61.2922 -41.339 0)
(-66.8603 -69.8427 0)
(-70.8988 -76.5375 0)
(-80.6943 -84.5464 0)
(-84.0847 -104.658 0)
(-67.0224 -139.504 0)
(-34.8736 -163.322 0)
(-1.42547 -184.404 0)
(45.6951 -194.286 0)
(104.405 -208.809 0)
(179.233 -212.144 0)
(234.263 -201.014 0)
(261.811 -159.813 0)
(260.914 -128.65 0)
(256.23 -71.6014 0)
(273.43 -18.9844 0)
(70.2866 89.5512 0)
(80.4489 101.679 0)
(75.9037 108.105 0)
(67.7122 110.078 0)
(58.7182 108.9 0)
(47.7463 103.357 0)
(34.7895 91.8399 0)
(16.3296 78.3587 0)
(-6.02217 64.522 0)
(-38.6093 52.0255 0)
(-67.6698 46.6027 0)
(-80.2838 29.1718 0)
(-79.8798 -11.8284 0)
(-78.1352 -59.8416 0)
(-79.2014 -70.878 0)
(-85.771 -74.5879 0)
(-93.4885 -93.5828 0)
(-76.3314 -128.013 0)
(-40.0334 -158.541 0)
(-2.68408 -181.297 0)
(43.1095 -193.723 0)
(102.764 -208.687 0)
(179.892 -211.671 0)
(238.626 -200.047 0)
(265.288 -158.54 0)
(266.85 -126.443 0)
(261.376 -71.2188 0)
(279.012 -17.1811 0)
(55.7921 78.7972 0)
(80.5062 98.0193 0)
(80.4098 104.85 0)
(77.9409 113.422 0)
(64.9206 111.133 0)
(57.0065 109.442 0)
(43.0193 100.286 0)
(29.2199 88.9029 0)
(10.173 79.2319 0)
(-13.7832 70.0017 0)
(-44.5948 60.6163 0)
(-75.862 56.4474 0)
(-95.4437 47.1411 0)
(-100.112 22.0255 0)
(-94.0163 -28.9331 0)
(-88.2037 -62.6145 0)
(-91.8103 -66.932 0)
(-101.047 -79.644 0)
(-86.1265 -122.127 0)
(-48.083 -152.313 0)
(-9.24649 -175.849 0)
(39.1542 -188.788 0)
(100.264 -206.577 0)
(180.357 -210.648 0)
(240.934 -200.233 0)
(271.308 -157.613 0)
(271.049 -124.211 0)
(268.099 -70.5828 0)
(282.731 -15.4762 0)
(28.8403 61.8104 0)
(73.9117 88.9746 0)
(82.1758 101.838 0)
(84.5245 112.466 0)
(75.2395 115.563 0)
(63.9124 111.988 0)
(52.9107 108.038 0)
(39.4587 96.8147 0)
(24.7775 89.5105 0)
(5.88918 80.7265 0)
(-19.2416 75.1182 0)
(-49.1496 69.8186 0)
(-81.8077 64.6628 0)
(-106.007 62.2497 0)
(-118.365 47.9125 0)
(-114.034 13.843 0)
(-102.931 -36.7873 0)
(-100.558 -58.9265 0)
(-110.031 -70.8182 0)
(-96.0371 -110.162 0)
(-54.1489 -148.09 0)
(-12.6101 -171.165 0)
(36.7001 -186.662 0)
(98.495 -205.522 0)
(181.493 -209.261 0)
(245.299 -199.146 0)
(275.022 -156.266 0)
(276.792 -121.481 0)
(273.184 -69.9105 0)
(287.92 -13.786 0)
(16.1602 51.5835 0)
(54.836 73.9487 0)
(79.0741 94.6357 0)
(88.0942 107.589 0)
(84.9771 117.825 0)
(72.7946 114.543 0)
(61.6095 111.644 0)
(50.8198 102.843 0)
(35.9584 94.4271 0)
(21.0426 90.173 0)
(2.0513 83.3717 0)
(-23.5938 78.814 0)
(-53.1723 75.6099 0)
(-85.3325 71.9234 0)
(-112.452 74.3207 0)
(-131.561 67.3521 0)
(-133.012 52.8457 0)
(-121.298 4.48198 0)
(-113.401 -41.9231 0)
(-119.743 -61.0862 0)
(-106.887 -104.527 0)
(-62.8254 -141.842 0)
(-18.4017 -165.44 0)
(32.1243 -182.292 0)
(95.4755 -204.019 0)
(181.074 -208.335 0)
(247.545 -199.059 0)
(281.109 -155.228 0)
(280.941 -118.76 0)
(279.59 -68.9509 0)
(291.424 -12.205 0)
(17.3384 51.0506 0)
(21.6179 49.7191 0)
(66.9989 83.14 0)
(88.9836 102.458 0)
(90.3145 114.415 0)
(86.0736 119.558 0)
(69.6335 112.498 0)
(60.481 110.111 0)
(45.3723 98.4995 0)
(34.4406 94.4704 0)
(18.2205 92.0799 0)
(-1.16763 85.4146 0)
(-26.8635 76.9606 0)
(-54.8287 80.2478 0)
(-87.7009 78.9985 0)
(-116.745 85.1183 0)
(-140.484 86.8433 0)
(-149.792 81.4351 0)
(-142.309 49.006 0)
(-130.961 -16.0083 0)
(-132.168 -52.3766 0)
(-117.047 -96.3211 0)
(-69.3895 -138.787 0)
(-22.5922 -160.001 0)
(29.0672 -178.118 0)
(92.7251 -201.995 0)
(182.022 -206.895 0)
(251.948 -197.996 0)
(285.11 -153.878 0)
(286.53 -115.58 0)
(284.56 -67.9585 0)
(296.204 -10.6227 0)
(25.0836 54.1697 0)
(16.0051 45.977 0)
(38.746 62.0353 0)
(81.9935 90.8443 0)
(93.8811 109.349 0)
(93.7534 119.446 0)
(81.1388 118.45 0)
(68.2112 109.252 0)
(58.5928 105.98 0)
(44.1444 94.1956 0)
(33.2688 96.4167 0)
(15.0761 91.3374 0)
(-3.87449 86.8618 0)
(-28.6441 82.4041 0)
(-57.6626 85.6643 0)
(-89.8428 91.7604 0)
(-120.154 98.7298 0)
(-146.257 107.562 0)
(-161.758 104.139 0)
(-161.423 83.8532 0)
(-150.365 13.449 0)
(-146.784 -42.3368 0)
(-129.22 -91.4051 0)
(-77.5393 -136.162 0)
(-27.4456 -157.02 0)
(24.8428 -174 0)
(89.5367 -201.738 0)
(182.257 -206.199 0)
(254.268 -197.748 0)
(291.324 -152.824 0)
(290.662 -112.444 0)
(290.599 -66.6933 0)
(299.484 -9.14534 0)
(38.3556 56.144 0)
(19.2941 50.1955 0)
(18.5936 45.4617 0)
(63.0268 75.8934 0)
(91.1363 99.7728 0)
(100.712 116.44 0)
(94.4547 120.625 0)
(78.9952 113.906 0)
(67.1645 106.801 0)
(54.9498 99.721 0)
(42.9229 95.8613 0)
(31.7105 96.6919 0)
(13.4241 91.4167 0)
(-7.15437 91.2697 0)
(-31.947 92.1421 0)
(-60.3839 98.737 0)
(-92.5041 108.763 0)
(-123.544 113.659 0)
(-150.311 124.145 0)
(-171.326 122.271 0)
(-179.104 107.413 0)
(-171.205 40.2053 0)
(-163.622 -29.9815 0)
(-140.632 -85.9118 0)
(-84.6147 -135.084 0)
(-31.4923 -153.987 0)
(21.5245 -170.157 0)
(85.9789 -199.258 0)
(182.15 -205.317 0)
(258.661 -196.924 0)
(295.662 -151.531 0)
(296.157 -108.902 0)
(295.411 -65.3968 0)
(303.831 -7.62288 0)
(49.758 59.3408 0)
(30.7288 52.8397 0)
(18.6989 47.6227 0)
(21.7453 46.0613 0)
(83.9915 87.7879 0)
(101.214 109.004 0)
(102.894 119.95 0)
(91.8865 119.441 0)
(74.8881 107.567 0)
(67.1642 103.919 0)
(52.7673 94.5928 0)
(44.8962 97.7087 0)
(30.2866 94.413 0)
(11.2567 94.6526 0)
(-9.52398 96.6408 0)
(-33.8686 108.578 0)
(-63.0911 113.165 0)
(-94.7792 124.936 0)
(-125.392 128.98 0)
(-153.6 136.959 0)
(-177.203 139.176 0)
(-194.438 124.341 0)
(-191.978 62.8642 0)
(-182.189 -18.1803 0)
(-154.891 -80.5665 0)
(-92.5202 -134.952 0)
(-35.197 -154.467 0)
(17.7381 -165.853 0)
(82.5468 -199.524 0)
(182.079 -204.514 0)
(261.065 -196.671 0)
(302.095 -150.682 0)
(300.329 -105.519 0)
(301.045 -63.9166 0)
(306.875 -6.17729 0)
(64.349 63.2584 0)
(41.6071 56.7406 0)
(27.543 53.156 0)
(14.3996 41.8985 0)
(49.7709 59.6735 0)
(100.345 98.9579 0)
(107.418 115.798 0)
(105.031 120.139 0)
(88.7723 113.433 0)
(73.8767 101.47 0)
(66.0462 99.6364 0)
(52.5478 91.7774 0)
(45.1809 99.4207 0)
(27.5453 96.026 0)
(11.1623 100.307 0)
(-9.76621 107.927 0)
(-34.8487 119.132 0)
(-64.0139 121.807 0)
(-95.2827 133.836 0)
(-126.8 142.023 0)
(-155.804 148.438 0)
(-182.979 152.068 0)
(-208.466 138.341 0)
(-212.565 82.6499 0)
(-202.152 -6.7173 0)
(-168.239 -75.705 0)
(-100.562 -134.074 0)
(-38.366 -154.712 0)
(13.849 -165.343 0)
(78.6346 -198.323 0)
(183.199 -203.44 0)
(265.573 -195.866 0)
(306.779 -149.47 0)
(305.775 -101.762 0)
(305.666 -62.4419 0)
(310.791 -4.63516 0)
(82.0251 67.344 0)
(53.2672 61.7592 0)
(38.583 56.9595 0)
(19.3507 51.8839 0)
(14.8419 31.9525 0)
(86.5851 84.0665 0)
(109.404 106.713 0)
(112.155 118.338 0)
(103.81 118.618 0)
(84.4194 104.769 0)
(74.2595 97.0723 0)
(65.4831 94.8372 0)
(54.3072 95.5812 0)
(45.3586 99.7694 0)
(26.1312 95.3826 0)
(12.0445 113.038 0)
(-10.3526 113.969 0)
(-34.5318 124.523 0)
(-62.4325 127.668 0)
(-94.3258 135.812 0)
(-124.998 152.163 0)
(-157.48 158.521 0)
(-186.474 163.716 0)
(-220.891 149.891 0)
(-232.927 101.95 0)
(-223.539 4.89694 0)
(-184.684 -70.6585 0)
(-109.108 -133.515 0)
(-40.2873 -157.514 0)
(10.6594 -161.282 0)
(75.5113 -198.915 0)
(182.628 -204.923 0)
(268.187 -195.636 0)
(313.48 -148.878 0)
(310.028 -98.2723 0)
(310.904 -60.9403 0)
(313.609 -3.2268 0)
(101.822 71.0287 0)
(69.5722 66.9523 0)
(49.3995 61.443 0)
(31.4068 57.1668 0)
(12.2227 32.9922 0)
(29.1388 39.3894 0)
(110.215 97.2898 0)
(117.339 112.498 0)
(114.217 118.676 0)
(100.548 110.74 0)
(81.3035 96.5484 0)
(75.2734 94.7414 0)
(65.369 92.2269 0)
(56.083 99.9309 0)
(43.4258 102.736 0)
(26.8988 105.621 0)
(12.8807 119.06 0)
(-9.98724 117.804 0)
(-33.3733 125.74 0)
(-60.8859 133.73 0)
(-91.979 138.64 0)
(-123.391 158.799 0)
(-157.838 167.498 0)
(-190.719 172.607 0)
(-232.037 161.427 0)
(-253.108 119.04 0)
(-246.232 19.3988 0)
(-200.662 -65.6608 0)
(-118.668 -132.937 0)
(-42.4747 -160.01 0)
(6.47397 -161.969 0)
(72.1301 -201.322 0)
(184.738 -204.177 0)
(272.88 -195 0)
(318.545 -147.851 0)
(315.49 -94.5055 0)
(315.329 -59.4337 0)
(317.092 -2.12572 0)
(122.551 74.0539 0)
(89.227 72.6403 0)
(64.7227 66.3432 0)
(42.117 62.4374 0)
(21.3319 47.3695 0)
(4.55133 22.5258 0)
(85.6328 73.5302 0)
(121.42 105.844 0)
(121.402 114.731 0)
(115.733 115.681 0)
(95.4934 100.658 0)
(81.4514 90.3199 0)
(76.539 93.9691 0)
(66.8739 95.9832 0)
(57.0048 101.809 0)
(42.4414 104.301 0)
(29.959 114.833 0)
(12.3068 121.087 0)
(-9.01873 122.1 0)
(-32.9011 125.839 0)
(-58.4733 141.279 0)
(-90.5782 143.85 0)
(-119.974 164.533 0)
(-157.847 174.045 0)
(-192.841 179.231 0)
(-241.35 173.313 0)
(-273.197 135.654 0)
(-269.985 38.3767 0)
(-220.802 -59.0737 0)
(-128.856 -132.1 0)
(-44.9365 -162.681 0)
(2.62203 -162.173 0)
(69.5337 -204.807 0)
(183.988 -206.778 0)
(275.847 -194.593 0)
(325.534 -147.508 0)
(319.84 -91.0923 0)
(320.195 -57.5958 0)
(319.669 -1.66779 0)
(143.384 75.552 0)
(112.734 78.4887 0)
(83.1928 71.0012 0)
(56.1015 69.3792 0)
(32.7763 51.9196 0)
(8.97196 39.6927 0)
(11.0451 18.2428 0)
(115.129 93.2616 0)
(129.555 110.596 0)
(124.353 113.523 0)
(111.932 107.764 0)
(91.3662 90.5349 0)
(84.4323 90.1092 0)
(77.7327 93.443 0)
(69.344 97.0597 0)
(58.5306 104.741 0)
(44.3995 108.884 0)
(31.7938 120.374 0)
(12.226 121.422 0)
(-8.41668 129.21 0)
(-31.8469 131.194 0)
(-57.9512 150.037 0)
(-89.1524 153.956 0)
(-118.742 169.534 0)
(-157.126 180.49 0)
(-195.537 184.333 0)
(-249.003 185.198 0)
(-292.405 152.298 0)
(-294.799 63.8002 0)
(-241.862 -49.3499 0)
(-140.131 -132.716 0)
(-48.1618 -166.665 0)
(-1.37212 -165.817 0)
(66.963 -210.625 0)
(184.281 -209.382 0)
(280.696 -193.881 0)
(330.962 -146.62 0)
(325.36 -87.5396 0)
(324.4 -55.262 0)
(322.746 -1.46002 0)
(163.438 76.0396 0)
(137.285 83.3973 0)
(104.41 76.6169 0)
(74.0247 75.2259 0)
(45.7111 60.8765 0)
(21.9139 47.4316 0)
(-12.4567 -0.801611 0)
(81.4052 64.6697 0)
(129.372 103.141 0)
(133.614 111.56 0)
(124.813 110.305 0)
(107.325 95.6568 0)
(91.1224 85.8396 0)
(87.1862 90.1859 0)
(79.7344 95.1548 0)
(71.9002 101.208 0)
(58.2605 108.423 0)
(46.4915 113.332 0)
(33.3215 124.194 0)
(11.7369 121.35 0)
(-7.01371 138.948 0)
(-32.123 140.442 0)
(-56.7796 160.829 0)
(-89.5731 166.348 0)
(-117.503 176.571 0)
(-157.377 188.585 0)
(-197.064 191.304 0)
(-255.569 195.785 0)
(-310.271 168.302 0)
(-320.482 92.7929 0)
(-267.317 -31.6379 0)
(-153.983 -128.769 0)
(-52.1099 -172.321 0)
(-4.52131 -176.404 0)
(64.9987 -218.879 0)
(187.233 -212.282 0)
(284.045 -193.251 0)
(338.189 -146.361 0)
(329.831 -84.5094 0)
(328.861 -52.7616 0)
(325.131 -1.3382 0)
(183.179 75.9672 0)
(160.65 85.2091 0)
(129.769 83.2375 0)
(93.9442 80.6962 0)
(64.02 69.3551 0)
(33.3576 55.2101 0)
(8.0975 24.8708 0)
(1.67576 5.69605 0)
(116.907 87.3491 0)
(139.159 109.311 0)
(134.53 110.243 0)
(122.503 101.63 0)
(102.595 84.9278 0)
(95.4813 88.0991 0)
(88.8378 89.1887 0)
(83.182 98.4695 0)
(73.8704 104.22 0)
(60.9111 113.499 0)
(48.3577 116.194 0)
(34.1578 129.309 0)
(12.7024 127.411 0)
(-6.21062 146.504 0)
(-31.0299 152.773 0)
(-57.0118 171.121 0)
(-89.923 181.335 0)
(-118.977 187.211 0)
(-158.367 201.132 0)
(-200.048 201.632 0)
(-261.525 207.425 0)
(-326.072 185.995 0)
(-346.523 120.71 0)
(-294.293 -6.15583 0)
(-170.389 -122.978 0)
(-56.8141 -178.313 0)
(-6.83431 -187.676 0)
(64.4468 -230.147 0)
(189.655 -217.851 0)
(289.509 -192.169 0)
(343.891 -145.288 0)
(335.475 -81.4231 0)
(332.792 -50.4278 0)
(327.85 -1.06836 0)
(201.463 75.1248 0)
(181.656 86.7752 0)
(158.827 89.1033 0)
(116.044 86.6881 0)
(84.2525 76.1748 0)
(49.4167 67.089 0)
(17.8287 32.6563 0)
(-24.1134 -11.6153 0)
(75.7208 57.1951 0)
(135.54 97.5736 0)
(144.608 110.006 0)
(132.976 103.128 0)
(118.447 90.5562 0)
(103.144 79.7849 0)
(99.0615 89.1751 0)
(91.2797 89.7968 0)
(87.2083 104.624 0)
(74.8788 106.556 0)
(62.0055 116.991 0)
(50.7416 120.467 0)
(34.0004 132.98 0)
(14.1989 136.948 0)
(-4.79619 155.531 0)
(-30.7826 165.551 0)
(-56.099 182.021 0)
(-91.4102 196.549 0)
(-120.375 203.083 0)
(-161.059 217.201 0)
(-203.294 216.013 0)
(-267.54 218.7 0)
(-339.918 204.563 0)
(-371.837 146.574 0)
(-323.898 26.8917 0)
(-191.698 -107.373 0)
(-64.454 -185.971 0)
(-8.7653 -205.812 0)
(64.5776 -245.022 0)
(194.78 -227.044 0)
(294.185 -191.756 0)
(351.329 -144.843 0)
(340.089 -78.8526 0)
(336.897 -48.4614 0)
(330.058 -0.943234 0)
(220.865 75.9171 0)
(199.979 83.829 0)
(187.029 93.185 0)
(141.592 93.347 0)
(106.939 84.4969 0)
(68.4245 74.2066 0)
(36.0309 48.8356 0)
(-1.25663 19.5944 0)
(-13.4416 -4.08642 0)
(118.992 82.6608 0)
(147.072 103.249 0)
(147.727 106.702 0)
(128.048 91.4788 0)
(117.484 82.3953 0)
(106.571 80.9769 0)
(102.714 90.5778 0)
(94.7663 93.0695 0)
(90.1946 109.91 0)
(76.025 109.951 0)
(64.1671 120.317 0)
(53.3028 127.354 0)
(34.3737 137.698 0)
(16.7094 148.3 0)
(-3.60357 164.464 0)
(-28.9973 179.62 0)
(-55.8644 192.455 0)
(-91.9492 212.561 0)
(-122.682 222.089 0)
(-164.509 235.954 0)
(-208.119 234.312 0)
(-273.471 231.665 0)
(-351.869 221.735 0)
(-395.492 169.645 0)
(-353.673 63.082 0)
(-216.231 -86.0061 0)
(-74.3715 -189.096 0)
(-11.0839 -225.381 0)
(65.8922 -259.5 0)
(198.963 -238.76 0)
(301.168 -190.784 0)
(357.282 -143.624 0)
(345.845 -76.2021 0)
(340.588 -46.6716 0)
(332.496 -0.829643 0)
(232.673 73.599 0)
(222.46 85.5352 0)
(201.802 94.4203 0)
(171.377 101.013 0)
(131.945 91.8685 0)
(88.7174 83.8962 0)
(54.9446 60.718 0)
(6.85793 24.601 0)
(-29.1617 -14.5928 0)
(65.6913 46.2103 0)
(139.466 92.7334 0)
(154.055 103.235 0)
(146.265 98.8882 0)
(124.005 78.5381 0)
(119.206 79.3807 0)
(110.746 81.2042 0)
(106.007 93.1829 0)
(99.6399 98.6809 0)
(92.6316 113.924 0)
(76.4974 112.659 0)
(66.7108 125.581 0)
(54.6438 133.821 0)
(35.7805 145.088 0)
(18.6354 158.885 0)
(-1.02331 175.182 0)
(-28.1593 192.535 0)
(-54.6659 205.136 0)
(-92.0842 228.801 0)
(-124.161 243.006 0)
(-168.987 255.935 0)
(-213.807 254.631 0)
(-280.099 244.94 0)
(-362.504 235.723 0)
(-416.575 188.365 0)
(-383.467 98.7617 0)
(-246.398 -56.3427 0)
(-89.6082 -190.927 0)
(-15.3647 -247.367 0)
(67.5822 -265.139 0)
(205.116 -250.308 0)
(307.518 -190.761 0)
(364.939 -143.028 0)
(350.512 -74.0726 0)
(344.416 -45.1431 0)
(334.59 -0.920913 0)
(236.284 74.4393 0)
(237.73 82.9003 0)
(224.138 93.7845 0)
(202.93 104.893 0)
(159.114 99.3568 0)
(112.217 92.792 0)
(75.8414 72.6996 0)
(26.5886 41.2123 0)
(-0.959497 8.83905 0)
(-23.3328 -14.835 0)
(117.832 75.6232 0)
(153.074 95.7616 0)
(158.85 98.5643 0)
(140.048 84.8276 0)
(124.281 72.2811 0)
(125.933 82.7875 0)
(112.215 82.3472 0)
(111.356 98.2634 0)
(103.386 104.808 0)
(93.8407 116.956 0)
(77.874 116.499 0)
(70.366 132.952 0)
(56.0906 140.908 0)
(37.9563 152.76 0)
(21.873 170.974 0)
(1.00063 184.906 0)
(-26.5393 205.681 0)
(-53.2501 220.342 0)
(-91.2034 244.313 0)
(-125.362 265.466 0)
(-173.6 278.356 0)
(-220.925 276.784 0)
(-287.452 260.465 0)
(-372.463 249.519 0)
(-435.229 204.42 0)
(-411.315 128.407 0)
(-277.69 -25.0652 0)
(-107.419 -188.176 0)
(-23.9588 -263.729 0)
(69.1703 -268.218 0)
(209.202 -261.891 0)
(315.794 -190.447 0)
(371.126 -141.645 0)
(356.314 -71.7285 0)
(347.867 -43.7003 0)
(336.803 -0.896687 0)
(232.866 69.8033 0)
(245.918 83.4082 0)
(239.338 93.4784 0)
(219.37 108.251 0)
(189.08 109.316 0)
(137.177 100.935 0)
(99.2151 85.6347 0)
(44.3947 54.8349 0)
(10.6292 24.9775 0)
(-31.7225 -21.5259 0)
(60.2948 34.0618 0)
(142.522 84.2761 0)
(163.716 93.6794 0)
(160.066 89.4284 0)
(134.96 71.7157 0)
(131.921 72.0537 0)
(129.468 83.7662 0)
(117.155 86.083 0)
(116.379 104.348 0)
(106.549 110.195 0)
(94.6916 120.126 0)
(79.5043 121.078 0)
(73.8231 140.829 0)
(57.2646 147.218 0)
(41.2711 162.401 0)
(24.6024 182.27 0)
(3.03782 195.101 0)
(-24.7516 219.177 0)
(-51.0222 237.832 0)
(-90.2317 260.279 0)
(-125.579 289.003 0)
(-178.837 301.35 0)
(-229.132 299.318 0)
(-296.327 277.296 0)
(-382.645 263.242 0)
(-451.866 219.923 0)
(-437.373 151.996 0)
(-312.048 4.9996 0)
(-131.64 -180.582 0)
(-34.354 -275.65 0)
(71.0824 -267.107 0)
(215.823 -269.354 0)
(323.298 -191.102 0)
(379.024 -140.968 0)
(360.978 -69.9569 0)
(351.444 -42.6289 0)
(338.827 -1.06616 0)
(222.524 67.8545 0)
(244.671 81.4878 0)
(243.832 94.1459 0)
(240.183 107.375 0)
(219.852 115.758 0)
(164.475 109.45 0)
(123.816 96.2453 0)
(68.2127 70.4572 0)
(21.9758 36.7413 0)
(-29.0377 -10.0598 0)
(-15.1587 -18.1367 0)
(113.169 62.0311 0)
(160.604 84.0602 0)
(170.666 86.9616 0)
(156.493 76.6697 0)
(134.611 65.8223 0)
(139.892 76.8749 0)
(132.676 86.175 0)
(121.954 91.4257 0)
(121.699 111.318 0)
(107.421 113.615 0)
(96.3299 124.563 0)
(83.0868 128.21 0)
(76.7873 147.961 0)
(58.9864 154.169 0)
(46.2828 173.332 0)
(27.3773 192.353 0)
(5.95086 207.681 0)
(-21.7209 231.728 0)
(-48.6787 256.787 0)
(-88.2657 279.478 0)
(-125.472 312.028 0)
(-183.657 323.931 0)
(-237.879 323.521 0)
(-306.312 298.252 0)
(-393.595 278.997 0)
(-467.795 237.063 0)
(-461.92 171.355 0)
(-345.921 33.0403 0)
(-156.12 -173.284 0)
(-43.6831 -281.512 0)
(72.175 -266.832 0)
(219.799 -275.17 0)
(332.07 -190.74 0)
(385.358 -139.404 0)
(366.757 -67.7868 0)
(354.649 -41.5705 0)
(340.882 -1.08849 0)
(201.288 65.5388 0)
(237.331 78.4722 0)
(242.97 92.5826 0)
(248.693 109.545 0)
(231.861 120.235 0)
(194.026 120.146 0)
(148.884 106.738 0)
(94.1947 85.9259 0)
(41.2851 52.8818 0)
(2.54358 15.8764 0)
(-39.23 -35.1281 0)
(72.8508 28.6828 0)
(139.801 67.6558 0)
(176.518 79.6749 0)
(175.843 78.3735 0)
(153.26 65.9265 0)
(141.272 67.9532 0)
(146.643 80.7039 0)
(134.884 89.1386 0)
(128.851 99.5778 0)
(124.955 117.044 0)
(107.775 116.402 0)
(98.4227 130.057 0)
(86.2704 135.118 0)
(80.0943 155.522 0)
(60.7792 160.823 0)
(52.1788 185.762 0)
(29.667 200.554 0)
(10.8046 224.162 0)
(-19.2914 242.792 0)
(-45.1173 277.457 0)
(-86.3188 301.909 0)
(-125.497 333.159 0)
(-188.419 344.578 0)
(-246.983 348.597 0)
(-317.939 323.003 0)
(-405.798 296.704 0)
(-483.198 253.436 0)
(-485.232 188.306 0)
(-380.916 54.4334 0)
(-186.988 -158.963 0)
(-54.9884 -288.087 0)
(72.1362 -258.374 0)
(224.29 -275.053 0)
(339.82 -191.047 0)
(393.415 -138.6 0)
(371.37 -66.2519 0)
(358.08 -40.8286 0)
(342.859 -1.34676 0)
(167.041 62.3695 0)
(219.576 77.3055 0)
(237.008 90.4238 0)
(248.95 109.328 0)
(244.134 122.149 0)
(225.075 127.742 0)
(173.994 115.842 0)
(122.248 100.592 0)
(61.4435 67.0382 0)
(12.0588 35.3937 0)
(-48.0655 -28.7891 0)
(-4.72979 -24.9404 0)
(112.841 47.9033 0)
(165.361 65.2716 0)
(188.662 72.6662 0)
(175.31 69.1754 0)
(152.434 61.9698 0)
(151.075 74.6473 0)
(150.389 83.8632 0)
(140.292 95.8363 0)
(133.976 106.823 0)
(127.846 121.425 0)
(108.372 120.57 0)
(101.611 136.575 0)
(90.2312 142.229 0)
(83.3348 162.611 0)
(64.1517 168.588 0)
(57.3538 197.821 0)
(33.1828 209.17 0)
(15.9919 240.892 0)
(-16.0248 255.585 0)
(-40.5724 298.924 0)
(-83.9576 325.353 0)
(-125.504 353.182 0)
(-192.076 364.401 0)
(-255.164 374.377 0)
(-330.182 351.206 0)
(-419.258 317.061 0)
(-498.831 269.735 0)
(-507.614 202.774 0)
(-414.575 73.5776 0)
(-216.109 -146.406 0)
(-64.1869 -288.801 0)
(73.6278 -225.801 0)
(223.548 -275.235 0)
(348.365 -189.828 0)
(399.781 -136.847 0)
(377.056 -64.1144 0)
(360.971 -39.9942 0)
(344.797 -1.29948 0)
(127.91 58.2562 0)
(187.757 74.7569 0)
(220.349 90.1547 0)
(245.213 107.127 0)
(245.378 123.831 0)
(239.647 133.367 0)
(198.839 126.081 0)
(150.743 113.694 0)
(87.8653 84.6354 0)
(32.2461 50.1701 0)
(-41.179 -16.9251 0)
(-38.5159 -41.1171 0)
(80.2914 19.8191 0)
(140.055 45.6299 0)
(188.751 61.5934 0)
(198.309 67.7531 0)
(172.96 63.9824 0)
(156.811 67.2964 0)
(155.817 78.1425 0)
(156.095 89.9153 0)
(144.809 103.31 0)
(138.517 113.349 0)
(129.136 125.274 0)
(110.202 125.44 0)
(105.013 142.892 0)
(94.0892 148.821 0)
(87.1554 170.051 0)
(68.5134 177.269 0)
(61.9126 209.7 0)
(37.0669 219.237 0)
(20.8377 256.337 0)
(-11.8359 272.708 0)
(-35.4719 319.701 0)
(-81.7355 347.385 0)
(-126.047 372.34 0)
(-195.167 383.655 0)
(-262.695 398.866 0)
(-343.226 380.358 0)
(-434.332 339.309 0)
(-515.276 286.247 0)
(-529.871 216.986 0)
(-448.796 87.1288 0)
(-249.771 -130.414 0)
(-76.7055 -285.994 0)
(74.6822 -195.142 0)
(225.201 -269.19 0)
(355.562 -189.197 0)
(407.872 -135.782 0)
(381.565 -62.5959 0)
(364.111 -39.6359 0)
(346.746 -1.43528 0)
(100.204 55.9221 0)
(147.489 71.342 0)
(189.592 88.0826 0)
(231.223 105.667 0)
(244.599 123.18 0)
(244.216 135.689 0)
(224.188 134.502 0)
(178.334 125.267 0)
(115.419 99.2934 0)
(52.7342 69.1152 0)
(-4.43568 14.9271 0)
(-50.6813 -56.6233 0)
(-8.06306 -22.8556 0)
(112.781 26.4901 0)
(174.748 43.22 0)
(206.809 59.2165 0)
(201.663 65.3683 0)
(171.574 62.8808 0)
(163.422 74.1641 0)
(161.472 83.5038 0)
(161.767 97.7451 0)
(149.269 109.829 0)
(142.087 119.126 0)
(130.366 129.456 0)
(112.355 130.929 0)
(109.115 149.113 0)
(97.8731 155.296 0)
(91.7958 177.89 0)
(74.1168 186.52 0)
(67.374 221.438 0)
(41.0824 230.479 0)
(26.7333 270.945 0)
(-6.0747 293.556 0)
(-29.6976 339.28 0)
(-79.2249 366.557 0)
(-125.928 392.438 0)
(-197.361 405.037 0)
(-268.954 422.56 0)
(-355.918 408.455 0)
(-450.264 362.012 0)
(-532.262 303.16 0)
(-552.01 229.973 0)
(-481.38 99.8848 0)
(-281.483 -115.644 0)
(-85.8355 -273.955 0)
(73.9178 -177.527 0)
(224.54 -261.212 0)
(363.207 -187.748 0)
(414.224 -133.992 0)
(387.119 -60.3966 0)
(364.494 -39.5927 0)
(348.652 -1.05459 0)
(90.825 54.8407 0)
(114.52 69.5074 0)
(148.37 85.2446 0)
(201.952 104.403 0)
(235.587 122.739 0)
(243.736 137.563 0)
(234.007 139.901 0)
(202.693 135.39 0)
(144.963 114.71 0)
(82.7482 87.1484 0)
(13.7795 42.6153 0)
(-56.8608 -52.329 0)
(-34.5216 -53.0377 0)
(81.358 -3.28226 0)
(151.661 19.7714 0)
(200.604 43.9129 0)
(221.173 61.7687 0)
(201.864 71.2303 0)
(169.628 69.6385 0)
(166.453 78.0032 0)
(168.21 90.8362 0)
(166.926 105.648 0)
(152.759 115.753 0)
(145.011 124.316 0)
(131.282 133.644 0)
(115.421 136.259 0)
(113.581 155.3 0)
(102.159 161.78 0)
(96.831 186.087 0)
(80.8531 196.55 0)
(73.1958 232.169 0)
(45.9401 243.776 0)
(33.0927 285.799 0)
(1.26533 315.861 0)
(-24.5495 356.257 0)
(-76.5207 383.376 0)
(-125.885 414.389 0)
(-199.706 429.873 0)
(-275.253 445.159 0)