# Force and moment coefficients
# dragDir     : (1.000000e+00 0.000000e+00 0.000000e+00)
# sideDir     : (0.000000e+00 0.000000e+00 -1.000000e+00)
# liftDir     : (0.000000e+00 1.000000e+00 0.000000e+00)
# rollAxis    : (1.000000e+00 0.000000e+00 0.000000e+00)
# pitchAxis   : (0.000000e+00 0.000000e+00 -1.000000e+00)
# yawAxis     : (0.000000e+00 1.000000e+00 0.000000e+00)
# magUInf     : 1.000000e+01
# lRef        : 1.000000e+00
# Aref        : 1.000000e+00
# CofR        : (0.000000e+00 0.000000e+00 0.000000e+00)
#
# Time        	Cd            	Cd(f)         	Cd(r)         	Cl            	Cl(f)         	Cl(r)         	CmPitch       	CmRoll        	CmYaw         	Cs            	Cs(f)         	Cs(r)         
1             	9.286180e+00	4.643066e+00	4.643114e+00	4.818513e-05	-5.347815e-05	1.016633e-04	-7.757072e-05	-2.409256e-05	4.643090e+00	2.611827e-21	4.643090e+00	-4.643090e+00
2             	1.219837e+01	6.101108e+00	6.097260e+00	-3.847581e-03	-4.312011e-03	4.644298e-04	-2.388221e-03	1.923791e-03	6.099184e+00	1.055516e-21	6.099184e+00	-6.099184e+00
