# Force and moment coefficients
# dragDir     : (1.000000e+00 0.000000e+00 0.000000e+00)
# sideDir     : (0.000000e+00 0.000000e+00 -1.000000e+00)
# liftDir     : (0.000000e+00 1.000000e+00 0.000000e+00)
# rollAxis    : (1.000000e+00 0.000000e+00 0.000000e+00)
# pitchAxis   : (0.000000e+00 0.000000e+00 -1.000000e+00)
# yawAxis     : (0.000000e+00 1.000000e+00 0.000000e+00)
# magUInf     : 1.000000e+01
# lRef        : 1.000000e+00
# Aref        : 1.000000e+00
# CofR        : (0.000000e+00 0.000000e+00 0.000000e+00)
#
# Time        	Cd            	Cd(f)         	Cd(r)         	Cl            	Cl(f)         	Cl(r)         	CmPitch       	CmRoll        	CmYaw         	Cs            	Cs(f)         	Cs(r)         
1             	5.432817e+02	2.688582e+02	2.744235e+02	5.565316e+00	5.388770e+00	1.765463e-01	2.606112e+00	-2.782658e+00	2.716409e+02	2.908668e-19	2.716409e+02	-2.716409e+02
2             	3.781535e+02	1.875968e+02	1.905567e+02	2.959876e+00	2.825083e+00	1.347935e-01	1.345145e+00	-1.479938e+00	1.890768e+02	2.232782e-19	1.890768e+02	-1.890768e+02
