# Force and moment coefficients
# dragDir     : (1.000000e+00 0.000000e+00 0.000000e+00)
# sideDir     : (0.000000e+00 0.000000e+00 -1.000000e+00)
# liftDir     : (0.000000e+00 1.000000e+00 0.000000e+00)
# rollAxis    : (1.000000e+00 0.000000e+00 0.000000e+00)
# pitchAxis   : (0.000000e+00 0.000000e+00 -1.000000e+00)
# yawAxis     : (0.000000e+00 1.000000e+00 0.000000e+00)
# magUInf     : 1.000000e+01
# lRef        : 1.000000e+00
# Aref        : 1.000000e+00
# CofR        : (0.000000e+00 0.000000e+00 0.000000e+00)
#
# Time        	Cd            	Cd(f)         	Cd(r)         	Cl            	Cl(f)         	Cl(r)         	CmPitch       	CmRoll        	CmYaw         	Cs            	Cs(f)         	Cs(r)         
1             	5.435561e+02	2.690197e+02	2.745365e+02	5.516836e+00	5.342166e+00	1.746703e-01	2.583748e+00	-2.758418e+00	2.717781e+02	2.913442e-19	2.717781e+02	-2.717781e+02
2             	3.782936e+02	1.876819e+02	1.906117e+02	2.929843e+00	2.794770e+00	1.350729e-01	1.329848e+00	-1.464921e+00	1.891468e+02	2.235098e-19	1.891468e+02	-1.891468e+02
