# Force and moment coefficients
# dragDir     : (1.000000e+00 0.000000e+00 0.000000e+00)
# sideDir     : (0.000000e+00 0.000000e+00 -1.000000e+00)
# liftDir     : (0.000000e+00 1.000000e+00 0.000000e+00)
# rollAxis    : (1.000000e+00 0.000000e+00 0.000000e+00)
# pitchAxis   : (0.000000e+00 0.000000e+00 -1.000000e+00)
# yawAxis     : (0.000000e+00 1.000000e+00 0.000000e+00)
# magUInf     : 1.000000e+01
# lRef        : 1.000000e+00
# Aref        : 1.000000e+00
# CofR        : (0.000000e+00 0.000000e+00 0.000000e+00)
#
# Time        	Cd            	Cd(f)         	Cd(r)         	Cl            	Cl(f)         	Cl(r)         	CmPitch       	CmRoll        	CmYaw         	Cs            	Cs(f)         	Cs(r)         
1             	-6.586397e-01	-2.305189e-01	-4.281208e-01	-1.976019e-01	-1.086468e-01	-8.895510e-02	-9.845859e-03	9.880096e-02	-3.293199e-01	-4.131767e-21	-3.293199e-01	3.293199e-01
2             	-1.712403e+00	-7.025451e-01	-1.009857e+00	-3.073124e-01	-1.778955e-01	-1.294169e-01	-2.423934e-02	1.536562e-01	-8.562013e-01	-1.890792e-21	-8.562013e-01	8.562013e-01
