# Force and moment coefficients
# dragDir     : (1.000000e+00 0.000000e+00 0.000000e+00)
# sideDir     : (0.000000e+00 0.000000e+00 -1.000000e+00)
# liftDir     : (0.000000e+00 1.000000e+00 0.000000e+00)
# rollAxis    : (1.000000e+00 0.000000e+00 0.000000e+00)
# pitchAxis   : (0.000000e+00 0.000000e+00 -1.000000e+00)
# yawAxis     : (0.000000e+00 1.000000e+00 0.000000e+00)
# magUInf     : 1.000000e+01
# lRef        : 1.000000e+00
# Aref        : 1.000000e+00
# CofR        : (0.000000e+00 0.000000e+00 0.000000e+00)
#
# Time        	Cd            	Cd(f)         	Cd(r)         	Cl            	Cl(f)         	Cl(r)         	CmPitch       	CmRoll        	CmYaw         	Cs            	Cs(f)         	Cs(r)         
1             	-6.590819e-01	-2.309196e-01	-4.281622e-01	-1.972426e-01	-1.084986e-01	-8.874403e-02	-9.877270e-03	9.862130e-02	-3.295409e-01	-4.131357e-21	-3.295409e-01	3.295409e-01
2             	-1.713175e+00	-7.036222e-01	-1.009553e+00	-3.059303e-01	-1.772840e-01	-1.286463e-01	-2.431886e-02	1.529652e-01	-8.565874e-01	-1.889667e-21	-8.565874e-01	8.565874e-01
