# Force and moment coefficients
# dragDir     : (1.000000e+00 0.000000e+00 0.000000e+00)
# sideDir     : (0.000000e+00 0.000000e+00 -1.000000e+00)
# liftDir     : (0.000000e+00 1.000000e+00 0.000000e+00)
# rollAxis    : (1.000000e+00 0.000000e+00 0.000000e+00)
# pitchAxis   : (0.000000e+00 0.000000e+00 -1.000000e+00)
# yawAxis     : (0.000000e+00 1.000000e+00 0.000000e+00)
# magUInf     : 1.000000e+01
# lRef        : 1.000000e+00
# Aref        : 1.000000e+00
# CofR        : (0.000000e+00 0.000000e+00 0.000000e+00)
#
# Time        	Cd            	Cd(f)         	Cd(r)         	Cl            	Cl(f)         	Cl(r)         	CmPitch       	CmRoll        	CmYaw         	Cs            	Cs(f)         	Cs(r)         
1             	9.286170e+00	4.643048e+00	4.643122e+00	7.327672e-05	-4.263356e-05	1.159103e-04	-7.927192e-05	-3.663836e-05	4.643085e+00	2.611826e-21	4.643085e+00	-4.643085e+00
2             	1.219835e+01	6.101095e+00	6.097257e+00	-3.837755e-03	-4.301202e-03	4.634475e-04	-2.382325e-03	1.918877e-03	6.099176e+00	1.055564e-21	6.099176e+00	-6.099176e+00
