# Force and moment coefficients
# dragDir     : (1.000000e+00 0.000000e+00 0.000000e+00)
# sideDir     : (0.000000e+00 0.000000e+00 -1.000000e+00)
# liftDir     : (0.000000e+00 1.000000e+00 0.000000e+00)
# rollAxis    : (1.000000e+00 0.000000e+00 0.000000e+00)
# pitchAxis   : (0.000000e+00 0.000000e+00 -1.000000e+00)
# yawAxis     : (0.000000e+00 1.000000e+00 0.000000e+00)
# magUInf     : 1.000000e+01
# lRef        : 1.000000e+00
# Aref        : 1.000000e+00
# CofR        : (0.000000e+00 0.000000e+00 0.000000e+00)
#
# Time        	Cd            	Cd(f)         	Cd(r)         	Cl            	Cl(f)         	Cl(r)         	CmPitch       	CmRoll        	CmYaw         	Cs            	Cs(f)         	Cs(r)         
1             	-7.505613e+03	-3.926105e+03	-3.579508e+03	3.465964e+02	3.306423e+02	1.595412e+01	1.573441e+02	-1.732982e+02	-3.752806e+03	-7.006534e-19	-3.752806e+03	3.752806e+03
2             	-1.328757e+04	-7.081952e+03	-6.205614e+03	8.763388e+02	8.379801e+02	3.835865e+01	3.998107e+02	-4.381694e+02	-6.643783e+03	-1.676082e-18	-6.643783e+03	6.643783e+03
