# Force and moment coefficients
# dragDir     : (1.000000e+00 0.000000e+00 0.000000e+00)
# sideDir     : (0.000000e+00 0.000000e+00 -1.000000e+00)
# liftDir     : (0.000000e+00 1.000000e+00 0.000000e+00)
# rollAxis    : (1.000000e+00 0.000000e+00 0.000000e+00)
# pitchAxis   : (0.000000e+00 0.000000e+00 -1.000000e+00)
# yawAxis     : (0.000000e+00 1.000000e+00 0.000000e+00)
# magUInf     : 1.000000e+01
# lRef        : 1.000000e+00
# Aref        : 1.000000e+00
# CofR        : (0.000000e+00 0.000000e+00 0.000000e+00)
#
# Time        	Cd            	Cd(f)         	Cd(r)         	Cl            	Cl(f)         	Cl(r)         	CmPitch       	CmRoll        	CmYaw         	Cs            	Cs(f)         	Cs(r)         
1             	-7.443041e+03	-3.891833e+03	-3.551208e+03	3.406256e+02	3.249155e+02	1.571013e+01	1.546027e+02	-1.703128e+02	-3.721521e+03	-7.071915e-19	-3.721521e+03	3.721521e+03
2             	-1.274114e+04	-6.779377e+03	-5.961760e+03	8.176170e+02	7.817322e+02	3.588482e+01	3.729237e+02	-4.088085e+02	-6.370569e+03	-1.691171e-18	-6.370569e+03	6.370569e+03
