# Force and moment coefficients
# dragDir     : (1.000000e+00 0.000000e+00 0.000000e+00)
# sideDir     : (0.000000e+00 0.000000e+00 -1.000000e+00)
# liftDir     : (0.000000e+00 1.000000e+00 0.000000e+00)
# rollAxis    : (1.000000e+00 0.000000e+00 0.000000e+00)
# pitchAxis   : (0.000000e+00 0.000000e+00 -1.000000e+00)
# yawAxis     : (0.000000e+00 1.000000e+00 0.000000e+00)
# magUInf     : 1.000000e+01
# lRef        : 1.000000e+00
# Aref        : 1.000000e+00
# CofR        : (0.000000e+00 0.000000e+00 0.000000e+00)
#
# Time        	Cd            	Cd(f)         	Cd(r)         	Cl            	Cl(f)         	Cl(r)         	CmPitch       	CmRoll        	CmYaw         	Cs            	Cs(f)         	Cs(r)         
1             	9.648275e+00	-2.872665e-01	9.935541e+00	1.022281e+01	5.035890e+00	5.186918e+00	-7.551372e-02	-5.111404e+00	4.824137e+00	4.475741e-21	4.824137e+00	-4.824137e+00
2             	1.242978e+01	-6.366609e-01	1.306645e+01	1.370311e+01	6.759387e+00	6.943720e+00	-9.216655e-02	-6.851553e+00	6.214892e+00	3.200156e-21	6.214892e+00	-6.214892e+00
3             	9.531995e+00	-4.688837e-01	1.000088e+01	1.046976e+01	5.211643e+00	5.258120e+00	-2.323849e-02	-5.234881e+00	4.765997e+00	1.401770e-21	4.765997e+00	-4.765997e+00
4             	2.503159e+00	-3.350245e-01	2.838183e+00	3.173208e+00	1.533295e+00	1.639913e+00	-5.330923e-02	-1.586604e+00	1.251579e+00	2.691855e-22	1.251579e+00	-1.251579e+00
5             	-3.950386e+00	-2.949101e-01	-3.655476e+00	-3.360566e+00	-1.769336e+00	-1.591230e+00	-8.905276e-02	1.680283e+00	-1.975193e+00	-1.078860e-21	-1.975193e+00	1.975193e+00
